LAMMPS Description

6103  atoms
4335  bonds
3434  angles
2295  dihedrals
0  impropers

90  atom types
840  bond types
4614  angle types
985  dihedral types
38  improper types

-0.05 40.05 xlo xhi
-0.05 40.05 ylo yhi
-0.05 40.05 zlo zhi

Masses

1 12.01  # c
2 12.01  # cs
3 12.01  # c1
4 12.01  # c2
5 12.01  # c3
6 12.01  # ca
7 12.01  # cp
8 12.01  # cq
9 12.01  # cc
10 12.01  # cd
11 12.01  # ce
12 12.01  # cf
13 12.01  # cg
14 12.01  # ch
15 12.01  # cx
16 12.01  # cy
17 12.01  # cu
18 12.01  # cv
19 12.01  # cz
20 1.008  # h1
21 1.008  # h2
22 1.008  # h3
23 1.008  # h4
24 1.008  # h5
25 1.008  # ha
26 1.008  # hc
27 1.008  # hn
28 1.008  # ho
29 1.008  # hp
30 1.008  # hs
31 1.008  # hw
32 1.008  # hx
33 19.00  # f
34 35.45  # cl
35 79.90  # br
36 126.9  # i
37 14.01  # n
38 14.01  # n1
39 14.01  # n2
40 14.01  # n3
41 14.01  # n4
42 14.01  # na
43 14.01  # nb
44 14.01  # nc
45 14.01  # nd
46 14.01  # ne
47 14.01  # nf
48 14.01  # nh
49 14.01  # no
50 14.01  # ns
51 14.01  # nt
52 14.01  # nx
53 14.01  # ny
54 14.01  # nz
55 14.01  # n+
56 14.01  # nu
57 14.01  # nv
58 14.01  # n7
59 14.01  # n8
60 14.01  # n9
61 16.00  # o
62 16.00  # oh
63 16.00  # os
64 16.00  # ow
65 30.97  # p2
66 30.97  # p3
67 30.97  # p4
68 30.97  # p5
69 30.97  # pb
70 30.97  # pc
71 30.97  # pd
72 30.97  # pe
73 30.97  # pf
74 30.97  # px
75 30.97  # py
76 32.06  # s
77 32.06  # s2
78 32.06  # s4
79 32.06  # s6
80 32.06  # sh
81 32.06  # ss
82 32.06  # sx
83 32.06  # sy
84 6.94  # li+
85 39.10  # k+
86 22.99  # na+
87 35.45  # cl-
88 19.00  # fl-
89 79.90  # br-
90 126.9  # i-

Atoms

1 1 5 -0.130200 16.008 8.493 11.435
2 1 26 0.013836 15.750 9.238 10.642
3 1 26 0.013836 16.121 7.587 10.812
4 1 5 0.178101 15.029 8.413 12.604
5 1 20 0.113844 14.040 8.439 12.161
6 1 63 -0.45099 15.023 9.513 13.479
7 1 79 1.164535 16.268 9.981 14.457
8 1 61 -0.652468 15.645 10.227 15.765
9 1 61 -0.652468 17.168 8.867 14.522
10 1 61 -0.652468 16.875 11.173 13.878
11 1 5 -0.065823 15.117 7.084 13.416
12 1 26 0.04642 15.061 6.250 12.669
13 1 26 0.04642 16.086 6.896 13.847
14 1 5 0.189838 14.071 7.032 14.526
15 1 20 0.031234 14.217 7.906 15.127
16 1 62 -0.648025 14.222 5.885 15.416
17 1 28 0.392967 14.052 5.120 14.872
18 1 5 -0.065823 12.596 6.926 13.895
19 1 26 0.04642 12.539 7.357 12.876
20 1 26 0.04642 12.235 5.859 13.834
21 1 5 0.189838 11.587 7.823 14.607
22 1 20 0.031234 11.833 8.933 14.499
23 1 62 -0.648025 11.427 7.407 15.959
24 1 28 0.392967 10.448 7.347 16.121
25 1 5 -0.065823 10.218 7.671 13.905
26 1 26 0.04642 10.440 7.904 12.813
27 1 26 0.04642 9.869 6.669 14.027
28 1 5 0.178101 9.184 8.716 14.467
29 1 20 0.113844 9.479 9.101 15.451
30 1 63 -0.45099 7.886 8.059 14.469
31 1 79 1.164535 7.313 7.474 15.899
32 1 61 -0.652468 6.102 6.760 15.473
33 1 61 -0.652468 7.092 8.721 16.676
34 1 61 -0.652468 8.394 6.605 16.401
35 1 5 -0.065823 8.911 9.888 13.509
36 1 26 0.04642 8.583 9.524 12.489
37 1 26 0.04642 8.084 10.395 13.927
38 1 5 0.189838 10.102 10.818 13.145
39 1 20 0.031234 10.973 10.226 12.890
40 1 62 -0.648025 10.574 11.521 14.348
41 1 28 0.392967 10.974 10.943 14.995
42 1 5 -0.065823 9.774 11.816 11.996
43 1 26 0.04642 9.447 11.362 11.018
44 1 26 0.04642 8.861 12.393 12.382
45 1 5 0.178101 10.999 12.707 11.694
46 1 20 0.113844 11.196 13.220 12.628
47 1 63 -0.45099 12.176 12.051 11.238
48 1 79 1.164535 12.200 11.041 9.959
49 1 61 -0.652468 11.291 11.613 9.002
50 1 61 -0.652468 13.602 11.042 9.562
51 1 61 -0.652468 11.739 9.739 10.447
52 1 26 0.013836 16.991 8.799 11.762
53 1 5 -0.130201 10.634 13.835 10.663
54 1 26 0.013836 10.006 13.458 9.828
55 1 26 0.013836 11.497 14.328 10.169
56 1 26 0.013836 10.206 14.694 11.148
57 2 5 -0.130200 12.954 37.305 18.704
58 2 26 0.013836 12.789 36.468 19.427
59 2 26 0.013836 11.930 37.724 18.668
60 2 5 0.178101 13.589 36.908 17.373
61 2 20 0.113844 13.088 35.996 17.070
62 2 63 -0.45099 14.943 36.536 17.423
63 2 79 1.164535 16.206 37.524 17.816
64 2 61 -0.652468 17.220 37.264 16.785
65 2 61 -0.652468 15.712 38.866 17.719
66 2 61 -0.652468 16.651 37.176 19.159
67 2 5 -0.065823 13.360 37.943 16.227
68 2 26 0.04642 12.259 38.154 16.205
69 2 26 0.04642 13.743 38.926 16.441
70 2 5 0.189838 13.956 37.462 14.907
71 2 20 0.031234 14.990 37.258 15.094
72 2 62 -0.648025 13.914 38.466 13.849
73 2 28 0.392967 12.986 38.606 13.671
74 2 5 -0.065823 13.139 36.189 14.359
75 2 26 0.04642 12.645 35.622 15.172
76 2 26 0.04642 12.343 36.483 13.616
77 2 5 0.189838 14.053 35.100 13.807
78 2 20 0.031234 14.729 34.645 14.607
79 2 62 -0.648025 14.764 35.582 12.671
80 2 28 0.392967 14.661 34.894 11.961
81 2 5 -0.065823 13.174 33.916 13.340
82 2 26 0.04642 12.552 33.656 14.257
83 2 26 0.04642 12.558 34.234 12.527
84 2 5 0.178101 14.066 32.682 12.941
85 2 20 0.113844 15.101 32.974 12.724
86 2 63 -0.45099 13.402 32.032 11.822
87 2 79 1.164535 13.984 32.307 10.305
88 2 61 -0.652468 12.981 31.637 9.468
89 2 61 -0.652468 15.320 31.658 10.365
90 2 61 -0.652468 14.007 33.777 10.181
91 2 5 -0.065823 14.051 31.550 13.982
92 2 26 0.04642 12.996 31.211 14.213
93 2 26 0.04642 14.531 30.737 13.508
94 2 5 0.189838 14.599 31.864 15.403
95 2 20 0.031234 14.195 32.804 15.759
96 2 62 -0.648025 16.035 32.179 15.326
97 2 28 0.392967 16.222 32.994 14.864
98 2 5 -0.065823 14.321 30.732 16.435
99 2 26 0.04642 13.239 30.456 16.593
100 2 26 0.04642 14.804 29.804 15.965
101 2 5 0.178101 14.897 31.112 17.816
102 2 20 0.113844 15.958 31.242 17.638
103 2 63 -0.45099 14.360 32.271 18.442
104 2 79 1.164535 12.764 32.495 18.694
105 2 61 -0.652468 12.246 31.198 19.040
106 2 61 -0.652468 12.735 33.482 19.767
107 2 61 -0.652468 12.208 32.994 17.435
108 2 26 0.013836 13.577 37.996 19.250
109 2 5 -0.130201 14.781 29.912 18.823
110 2 26 0.013836 13.799 29.397 18.757
111 2 26 0.013836 14.892 30.176 19.895
112 2 26 0.013836 15.612 29.235 18.732
113 3 5 -0.130200 26.766 22.626 14.039
114 3 26 0.013836 27.076 23.671 14.290
115 3 26 0.013836 27.616 22.068 14.476
116 3 5 0.178101 26.451 22.371 12.567
117 3 20 0.113844 27.233 22.872 12.008
118 3 63 -0.45099 25.272 22.959 12.078
119 3 79 1.164535 23.734 22.585 12.549
120 3 61 -0.652468 22.982 22.446 11.295
121 3 61 -0.652468 23.818 21.330 13.236
122 3 61 -0.652468 23.244 23.667 13.394
123 3 5 -0.065823 26.508 20.866 12.158
124 3 26 0.04642 27.491 20.473 12.527
125 3 26 0.04642 25.827 20.237 12.705
126 3 5 0.189838 26.253 20.678 10.665
127 3 20 0.031234 25.310 21.140 10.454
128 3 62 -0.648025 26.130 19.280 10.265
129 3 28 0.392967 26.990 18.896 10.426
130 3 5 -0.065823 27.471 21.290 9.812
131 3 26 0.04642 28.003 22.097 10.353
132 3 26 0.04642 28.232 20.505 9.535
133 3 5 0.189838 26.997 22.072 8.590
134 3 20 0.031234 26.390 22.998 8.868
135 3 62 -0.648025 26.326 21.205 7.681
136 3 28 0.392967 26.717 21.381 6.784
137 3 5 -0.065823 28.238 22.641 7.864
138 3 26 0.04642 28.788 23.224 8.672
139 3 26 0.04642 28.831 21.832 7.494
140 3 5 0.178101 27.809 23.619 6.708
141 3 20 0.113844 26.770 23.456 6.394
142 3 63 -0.45099 28.771 23.442 5.632
143 3 79 1.164535 28.332 22.522 4.337
144 3 61 -0.652468 29.586 22.447 3.577
145 3 61 -0.652468 27.251 23.341 3.730
146 3 61 -0.652468 27.893 21.244 4.927
147 3 5 -0.065823 28.025 25.103 7.046
148 3 26 0.04642 29.095 25.308 7.354
149 3 26 0.04642 27.871 25.616 6.136
150 3 5 0.189838 27.233 25.697 8.246
151 3 20 0.031234 27.293 25.031 9.098
152 3 62 -0.648025 25.791 25.664 7.956
153 3 28 0.392967 25.431 24.780 7.908
154 3 5 -0.065823 27.700 27.127 8.645
155 3 26 0.04642 28.786 27.236 8.929
156 3 26 0.04642 27.576 27.738 7.683
157 3 5 0.178101 26.867 27.650 9.835
158 3 20 0.113844 25.846 27.647 9.471
159 3 63 -0.45099 26.954 26.920 11.053
160 3 79 1.164535 28.367 26.569 11.789
161 3 61 -0.652468 29.197 27.728 11.596
162 3 61 -0.652468 27.967 26.313 13.167
163 3 61 -0.652468 28.906 25.387 11.114
164 3 26 0.013836 25.901 22.459 14.664
165 3 5 -0.130201 27.203 29.154 10.139
166 3 26 0.013836 28.293 29.362 10.095
167 3 26 0.013836 26.884 29.522 11.136
168 3 26 0.013836 26.628 29.822 9.523
169 4 5 -0.130200 5.856 28.549 16.772
170 4 26 0.013836 6.353 29.202 16.012
171 4 26 0.013836 5.069 28.094 16.142
172 4 5 0.178101 5.402 29.256 18.047
173 4 20 0.113844 4.946 30.184 17.722
174 4 63 -0.45099 6.423 29.680 18.914
175 4 79 1.164535 7.464 28.700 19.739
176 4 61 -0.652468 7.470 29.229 21.110
177 4 61 -0.652468 6.894 27.386 19.702
178 4 61 -0.652468 8.767 28.776 19.090
179 4 5 -0.065823 4.309 28.481 18.847
180 4 26 0.04642 3.502 28.221 18.113
181 4 26 0.04642 4.612 27.497 19.162
182 4 5 0.189838 3.845 29.265 20.071
183 4 20 0.031234 4.721 29.479 20.649
184 4 62 -0.648025 2.948 28.511 20.941
185 4 28 0.392967 2.160 28.362 20.422
186 4 5 -0.065823 3.039 30.580 19.617
187 4 26 0.04642 3.337 30.933 18.610
188 4 26 0.04642 1.924 30.411 19.602
189 4 5 0.189838 3.412 31.810 20.439
190 4 20 0.031234 4.502 32.118 20.300
191 4 62 -0.648025 3.044 31.621 21.802
192 4 28 0.392967 2.550 32.439 22.077
193 4 5 -0.065823 2.609 33.018 19.902
194 4 26 0.04642 2.856 33.041 18.791
195 4 26 0.04642 1.567 32.849 20.066
196 4 5 0.178101 3.091 34.354 20.578
197 4 20 0.113844 3.623 34.171 21.520
198 4 63 -0.45099 1.913 35.193 20.733
199 4 79 1.164535 1.211 35.282 22.221
200 4 61 -0.652468 -0.001 36.062 21.940
201 4 61 -0.652468 2.259 35.973 23.016
202 4 61 -0.652468 0.965 33.877 22.596
203 4 5 -0.065823 3.951 35.234 19.655
204 4 26 0.04642 3.422 35.459 18.681
205 4 26 0.04642 4.045 36.155 20.165
206 4 5 0.189838 5.303 34.652 19.151
207 4 20 0.031234 5.164 33.638 18.798
208 4 62 -0.648025 6.210 34.438 20.290
209 4 28 0.392967 5.917 33.753 20.887
210 4 5 -0.065823 5.974 35.520 18.047
211 4 26 0.04642 5.365 35.697 17.114
212 4 26 0.04642 6.087 36.551 18.535
213 4 5 0.178101 7.308 34.884 17.602
214 4 20 0.113844 7.906 34.851 18.506
215 4 63 -0.45099 7.241 33.590 17.013
216 4 79 1.164535 6.284 33.232 15.742
217 4 61 -0.652468 6.320 34.395 14.896
218 4 61 -0.652468 6.907 32.038 15.185
219 4 61 -0.652468 4.946 32.986 16.284
220 4 26 0.013836 6.596 27.791 16.981
221 4 5 -0.130201 8.082 35.832 16.617
222 4 26 0.013836 7.413 36.295 15.862
223 4 26 0.013836 8.888 35.350 16.026
224 4 26 0.013836 8.676 36.556 17.147
225 5 5 -0.130200 7.383 8.384 36.748
226 5 26 0.013836 6.642 8.291 37.581
227 5 26 0.013836 7.084 9.367 36.339
228 5 5 0.178101 7.424 7.210 35.773
229 5 20 0.113844 6.389 6.957 35.575
230 5 63 -0.45099 7.965 6.013 36.271
231 5 79 1.164535 9.531 5.776 36.739
232 5 61 -0.652468 9.921 4.506 36.111
233 5 61 -0.652468 10.282 6.867 36.193
234 5 61 -0.652468 9.566 5.730 38.195
235 5 5 -0.065823 8.069 7.554 34.393
236 5 26 0.04642 7.558 8.482 34.026
237 5 26 0.04642 9.085 7.903 34.459
238 5 5 0.189838 8.020 6.366 33.437
239 5 20 0.031234 8.500 5.549 33.937
240 5 62 -0.648025 8.757 6.585 32.197
241 5 28 0.392967 8.294 7.290 31.749
242 5 5 -0.065823 6.501 6.054 33.014
243 5 26 0.04642 5.771 6.392 33.776
244 5 26 0.04642 6.223 6.544 32.036
245 5 5 0.189838 6.188 4.561 33.005
246 5 20 0.031234 6.266 4.089 34.042
247 5 62 -0.648025 6.975 3.899 32.020
248 5 28 0.392967 6.350 3.331 31.496
249 5 5 -0.065823 4.702 4.375 32.619
250 5 26 0.04642 4.140 5.020 33.371
251 5 26 0.04642 4.552 4.721 31.620
252 5 5 0.178101 4.267 2.872 32.783
253 5 20 0.113844 5.127 2.191 32.788
254 5 63 -0.45099 3.316 2.594 31.718
255 5 79 1.164535 3.849 1.774 30.393
256 5 61 -0.652468 2.683 1.838 29.504
257 5 61 -0.652468 4.160 0.436 30.963
258 5 61 -0.652468 5.018 2.545 29.929
259 5 5 -0.065823 3.393 2.616 34.023
260 5 26 0.04642 2.484 3.290 34.037
261 5 26 0.04642 3.033 1.630 33.905
262 5 5 0.189838 4.016 2.898 35.420
263 5 20 0.031234 4.518 3.857 35.417
264 5 62 -0.648025 5.144 1.983 35.656
265 5 28 0.392967 5.889 2.139 35.079
266 5 5 -0.065823 2.980 2.834 36.580
267 5 26 0.04642 2.102 3.537 36.504
268 5 26 0.04642 2.532 1.782 36.495
269 5 5 0.178101 3.670 3.118 37.931
270 5 20 0.113844 4.420 2.340 38.019
271 5 63 -0.45099 4.271 4.397 38.092
272 5 79 1.164535 3.474 5.798 37.846
273 5 61 -0.652468 2.142 5.573 38.342
274 5 61 -0.652468 4.262 6.764 38.601
275 5 61 -0.652468 3.491 6.041 36.403
276 5 26 0.013836 8.327 8.508 37.259
277 5 5 -0.130201 2.680 2.886 39.128
278 5 26 0.013836 1.669 3.299 38.928
279 5 26 0.013836 2.986 3.338 40.095
280 5 26 0.013836 2.654 1.853 39.429
281 6 5 -0.130200 3.462 21.390 17.626
282 6 26 0.013836 2.620 21.111 16.945
283 6 26 0.013836 3.881 22.246 17.065
284 6 5 0.178101 4.422 20.256 17.981
285 6 20 0.113844 4.605 19.726 17.053
286 6 63 -0.45099 3.914 19.261 18.832
287 6 79 1.164535 3.461 19.470 20.406
288 6 61 -0.652468 4.076 18.345 21.125
289 6 61 -0.652468 4.030 20.717 20.826
290 6 61 -0.652468 2.005 19.459 20.463
291 6 5 -0.065823 5.813 20.741 18.496
292 6 26 0.04642 6.187 21.488 17.747
293 6 26 0.04642 5.764 21.356 19.378
294 6 5 0.189838 6.753 19.570 18.768
295 6 20 0.031234 6.247 18.925 19.457
296 6 62 -0.648025 8.004 19.963 19.408
297 6 28 0.392967 8.456 20.506 18.766
298 6 5 -0.065823 7.155 18.847 17.389
299 6 26 0.04642 6.389 18.984 16.601
300 6 26 0.04642 8.135 19.226 16.981
301 6 5 0.189838 7.139 17.326 17.498
302 6 20 0.031234 6.097 16.910 17.710
303 6 62 -0.648025 8.124 16.889 18.429
304 6 28 0.392967 8.634 16.163 17.980
305 6 5 -0.065823 7.506 16.734 16.117
306 6 26 0.04642 6.757 17.211 15.405
307 6 26 0.04642 8.509 17.009 15.871
308 6 5 0.178101 7.317 15.171 16.112
309 6 20 0.113844 7.313 14.752 17.126
310 6 63 -0.45099 8.368 14.627 15.266
311 6 79 1.164535 9.688 13.962 15.995
312 6 61 -0.652468 10.564 13.689 14.848
313 6 61 -0.652468 9.103 12.771 16.664
314 6 61 -0.652468 10.175 15.016 16.904
315 6 5 -0.065823 6.064 14.706 15.351
316 6 26 0.04642 6.049 15.105 14.291
317 6 26 0.04642 6.165 13.657 15.274
318 6 5 0.189838 4.679 15.170 15.882
319 6 20 0.031234 4.700 16.230 16.102
320 6 62 -0.648025 4.442 14.603 17.219
321 6 28 0.392967 5.030 14.948 17.889
322 6 5 -0.065823 3.506 14.843 14.911
323 6 26 0.04642 3.582 15.277 13.873
324 6 26 0.04642 3.572 13.707 14.769
325 6 5 0.178101 2.166 15.327 15.507
326 6 20 0.113844 2.077 14.786 16.442
327 6 63 -0.45099 2.030 16.724 15.735
328 6 79 1.164535 2.285 17.850 14.584
329 6 61 -0.652468 1.772 17.276 13.367
330 6 61 -0.652468 1.552 19.006 15.082
331 6 61 -0.652468 3.732 18.064 14.523
332 6 26 0.013836 2.964 21.775 18.503
333 6 5 -0.130201 0.955 14.852 14.627
334 6 26 0.013836 1.150 14.969 13.540
335 6 26 0.013836 -0.001 15.386 14.804
336 6 26 0.013836 0.641 13.857 14.887
337 7 5 -0.130200 21.529 38.942 2.228
338 7 26 0.013836 22.430 39.088 2.875
339 7 26 0.013836 21.471 39.943 1.760
340 7 5 0.178101 20.280 38.437 2.946
341 7 20 0.113844 20.221 39.005 3.867
342 7 63 -0.45099 20.319 37.103 3.386
343 7 79 1.164535 20.397 35.765 2.422
344 7 61 -0.652468 19.383 34.851 2.967
345 7 61 -0.652468 20.039 36.198 1.104
346 7 61 -0.652468 21.751 35.230 2.499
347 7 5 -0.065823 18.952 38.706 2.172
348 7 26 0.04642 18.957 39.793 1.899
349 7 26 0.04642 18.916 38.258 1.194
350 7 5 0.189838 17.734 38.242 2.966
351 7 20 0.031234 17.890 37.208 3.193
352 7 62 -0.648025 16.484 38.320 2.216
353 7 28 0.392967 16.343 39.250 2.057
354 7 5 -0.065823 17.538 39.162 4.271
355 7 26 0.04642 18.488 39.617 4.615
356 7 26 0.04642 16.804 40.000 4.094
357 7 5 0.189838 17.180 38.351 5.513
358 7 20 0.031234 18.014 37.636 5.827
359 7 62 -0.648025 15.921 37.711 5.336
360 7 28 0.392967 15.389 37.905 6.154
361 7 5 -0.065823 17.048 39.322 6.709
362 7 26 0.04642 18.040 39.881 6.721
363 7 26 0.04642 16.229 39.985 6.535
364 7 5 0.178101 16.873 38.528 8.056
365 7 20 0.113844 16.527 37.500 7.887
366 7 63 -0.45099 15.974 39.311 8.888
367 7 79 1.164535 14.398 38.840 8.989
368 7 61 -0.652468 13.800 39.939 9.758
369 7 61 -0.652468 14.510 37.538 9.697
370 7 61 -0.652468 13.950 38.755 7.587
371 7 5 -0.065823 18.138 38.515 8.931
372 7 26 0.04642 18.509 39.563 9.141
373 7 26 0.04642 17.825 38.116 9.858
374 7 5 0.189838 19.414 37.839 8.353
375 7 20 0.031234 19.579 38.166 7.334
376 7 62 -0.648025 19.172 36.401 8.158
377 7 28 0.392967 18.529 36.211 7.477
378 7 5 -0.065823 20.687 38.090 9.212
379 7 26 0.04642 20.975 39.167 9.376
380 7 26 0.04642 20.404 37.692 10.250
381 7 5 0.178101 21.908 37.386 8.581
382 7 20 0.113844 21.634 36.337 8.562
383 7 63 -0.45099 22.295 37.813 7.280
384 7 79 1.164535 22.599 39.370 6.901
385 7 61 -0.652468 23.258 39.922 8.055
386 7 61 -0.652468 23.426 39.264 5.706
387 7 61 -0.652468 21.302 40.000 6.653
388 7 26 0.013836 21.865 38.242 1.477
389 7 5 -0.130201 23.161 37.480 9.522
390 7 26 0.013836 23.277 38.488 9.973
391 7 26 0.013836 24.137 37.269 9.039
392 7 26 0.013836 23.166 36.694 10.257
393 8 5 -0.130200 27.229 0.825 2.599
394 8 26 0.013836 26.384 1.173 1.954
395 8 26 0.013836 26.728 -0.002 3.135
396 8 5 0.178101 27.891 1.906 3.451
397 8 20 0.113844 27.078 2.493 3.863
398 8 63 -0.45099 28.662 2.854 2.756
399 8 79 1.164535 30.056 2.550 1.926
400 8 61 -0.652468 30.984 3.605 2.354
401 8 61 -0.652468 30.511 1.262 2.363
402 8 61 -0.652468 29.754 2.596 0.501
403 8 5 -0.065823 28.695 1.349 4.667
404 8 26 0.04642 28.009 0.646 5.208
405 8 26 0.04642 29.491 0.677 4.395
406 8 5 0.189838 29.275 2.474 5.520
407 8 20 0.031234 29.863 3.084 4.866
408 8 62 -0.648025 30.173 2.005 6.571
409 8 28 0.392967 29.624 1.496 7.163
410 8 5 -0.065823 28.094 3.278 6.258
411 8 26 0.04642 27.133 3.216 5.709
412 8 26 0.04642 27.913 2.902 7.305
413 8 5 0.189838 28.307 4.789 6.229
414 8 20 0.031234 28.285 5.217 5.171
415 8 62 -0.648025 29.481 5.135 6.957
416 8 28 0.392967 29.225 5.876 7.569
417 8 5 -0.065823 27.105 5.464 6.931
418 8 26 0.04642 26.198 5.057 6.378
419 8 26 0.04642 27.095 5.180 7.961
420 8 5 0.178101 27.168 7.028 6.764
421 8 20 0.113844 28.177 7.376 6.513
422 8 63 -0.45099 26.649 7.600 7.996
423 8 79 1.164535 27.726 8.178 9.100
424 8 61 -0.652468 26.854 8.505 10.235
425 8 61 -0.652468 28.316 9.336 8.379
426 8 61 -0.652468 28.648 7.052 9.338
427 8 5 -0.065823 26.158 7.578 5.743
428 8 26 0.04642 25.101 7.252 5.986
429 8 26 0.04642 26.185 8.626 5.868
430 8 5 0.189838 26.296 7.115 4.264
431 8 20 0.031234 26.437 6.043 4.221
432 8 62 -0.648025 27.572 7.595 3.709
433 8 28 0.392967 28.339 7.189 4.110
434 8 5 -0.065823 25.093 7.539 3.371
435 8 26 0.04642 24.078 7.175 3.698
436 8 26 0.04642 25.055 8.680 3.480
437 8 5 0.178101 25.305 7.051 1.922
438 8 20 0.113844 26.227 7.529 1.608
439 8 63 -0.45099 25.390 5.646 1.720
440 8 79 1.164535 24.257 4.596 2.243
441 8 61 -0.652468 22.998 5.265 2.051
442 8 61 -0.652468 24.475 3.428 1.399
443 8 61 -0.652468 24.539 4.347 3.658
444 8 26 0.013836 27.926 0.394 1.896
445 8 5 -0.130201 24.191 7.618 0.970
446 8 26 0.013836 23.180 7.570 1.427
447 8 26 0.013836 24.088 7.098 -0.005
448 8 26 0.013836 24.438 8.601 0.610
449 9 5 -0.130200 31.704 5.114 26.622
450 9 26 0.013836 31.244 5.851 27.325
451 9 26 0.013836 32.224 4.461 27.347
452 9 5 0.178101 32.548 5.716 25.500
453 9 20 0.113844 33.145 6.491 25.966
454 9 63 -0.45099 31.842 6.403 24.498
455 9 79 1.164535 30.771 5.735 23.434
456 9 61 -0.652468 31.152 6.282 22.125
457 9 61 -0.652468 30.990 4.319 23.479
458 9 61 -0.652468 29.426 6.118 23.845
459 9 5 -0.065823 33.553 4.712 24.854
460 9 26 0.04642 34.119 4.240 25.699
461 9 26 0.04642 33.087 3.843 24.421
462 9 5 0.189838 34.415 5.384 23.789
463 9 20 0.031234 33.742 5.825 23.083
464 9 62 -0.648025 35.252 4.451 23.042
465 9 28 0.392967 35.867 4.098 23.680
466 9 5 -0.065823 35.414 6.444 24.471
467 9 26 0.04642 35.024 6.836 25.432
468 9 26 0.04642 36.431 6.001 24.672
469 9 5 0.189838 35.511 7.748 23.685
470 9 20 0.031234 34.521 8.316 23.650
471 9 62 -0.648025 36.072 7.507 22.399
472 9 28 0.392967 36.792 8.182 22.274
473 9 5 -0.065823 36.465 8.703 24.440
474 9 26 0.04642 36.025 8.760 25.489
475 9 26 0.04642 37.447 8.283 24.451
476 9 5 0.178101 36.456 10.134 23.786
477 9 20 0.113844 36.083 10.113 22.753
478 9 63 -0.45099 37.808 10.655 23.902
479 9 79 1.164535 38.780 10.602 22.572
480 9 61 -0.652468 40.069 11.046 23.117
481 9 61 -0.652468 38.099 11.552 21.655
482 9 61 -0.652468 38.746 9.189 22.148
483 9 5 -0.065823 35.674 11.178 24.601
484 9 26 0.04642 36.049 11.239 25.668
485 9 26 0.04642 35.904 12.105 24.150
486 9 5 0.189838 34.153 10.941 24.815
487 9 20 0.031234 33.974 9.915 25.114
488 9 62 -0.648025 33.453 10.989 23.521
489 9 28 0.392967 33.680 10.267 22.938
490 9 5 -0.065823 33.515 11.921 25.842
491 9 26 0.04642 33.959 11.918 26.878
492 9 26 0.04642 33.748 12.960 25.417
493 9 5 0.178101 32.007 11.629 25.998
494 9 20 0.113844 31.601 11.769 25.002
495 9 63 -0.45099 31.647 10.346 26.496
496 9 79 1.164535 32.231 9.728 27.887
497 9 61 -0.652468 32.317 10.843 28.793
498 9 61 -0.652468 31.244 8.715 28.240
499 9 61 -0.652468 33.548 9.169 27.575
500 9 26 0.013836 30.856 4.571 26.231
501 9 5 -0.130201 31.312 12.716 26.894
502 9 26 0.013836 31.917 12.979 27.786
503 9 26 0.013836 30.316 12.436 27.298
504 9 26 0.013836 31.022 13.578 26.320
505 10 5 -0.130200 22.187 5.573 25.976
506 10 26 0.013836 22.428 6.303 25.165
507 10 26 0.013836 21.378 5.004 25.481
508 10 5 0.178101 21.871 6.186 27.339
509 10 20 0.113844 21.224 7.032 27.137
510 10 63 -0.45099 22.956 6.760 28.023
511 10 79 1.164535 24.269 5.950 28.610
512 10 61 -0.652468 24.444 6.461 29.976
513 10 61 -0.652468 23.913 4.562 28.625
514 10 61 -0.652468 25.404 6.239 27.740
515 10 5 -0.065823 21.077 5.239 28.292
516 10 26 0.04642 20.199 4.861 27.706
517 10 26 0.04642 21.582 4.313 28.509
518 10 5 0.189838 20.729 5.927 29.609
519 10 20 0.031234 21.652 6.273 30.027
520 10 62 -0.648025 20.135 5.031 30.596
521 10 28 0.392967 19.298 4.764 30.222
522 10 5 -0.065823 19.659 7.101 29.358
523 10 26 0.04642 19.709 7.506 28.328
524 10 26 0.04642 18.600 6.756 29.537
525 10 5 0.189838 19.981 8.367 30.146
526 10 20 0.031234 20.967 8.847 29.825
527 10 62 -0.648025 19.905 8.109 31.545
528 10 28 0.392967 19.349 8.835 31.935
529 10 5 -0.065823 18.916 9.436 29.809
530 10 26 0.04642 18.948 9.509 28.674
531 10 26 0.04642 17.961 9.101 30.152
532 10 5 0.178101 19.302 10.826 30.439
533 10 20 0.113844 20.020 10.722 31.262
534 10 63 -0.45099 18.057 11.464 30.835
535 10 79 1.164535 17.635 11.426 32.428
536 10 61 -0.652468 16.286 12.005 32.400
537 10 61 -0.652468 18.691 12.268 33.047
538 10 61 -0.652468 17.683 9.996 32.786
539 10 5 -0.065823 19.831 11.841 29.411
540 10 26 0.04642 19.102 11.987 28.557
541 10 26 0.04642 19.873 12.759 29.930
542 10 5 0.189838 21.140 11.486 28.650
543 10 20 0.031234 21.097 10.466 28.289
544 10 62 -0.648025 22.263 11.410 29.597
545 10 28 0.392967 22.194 10.680 30.211
546 10 5 -0.065823 21.453 12.460 27.476
547 10 26 0.04642 20.663 12.547 26.676
548 10 26 0.04642 21.492 13.492 27.975
549 10 5 0.178101 22.765 12.050 26.774
550 10 20 0.113844 23.516 12.105 27.554
551 10 63 -0.45099 22.794 10.768 26.158
552 10 79 1.164535 21.686 10.274 25.068
553 10 61 -0.652468 21.386 11.436 24.274
554 10 61 -0.652468 22.373 9.200 24.362
555 10 61 -0.652468 20.525 9.813 25.831
556 10 26 0.013836 23.061 4.941 26.020
557 10 5 -0.130201 23.189 13.118 25.704
558 10 26 0.013836 22.329 13.477 25.100
559 10 26 0.013836 23.938 12.777 24.959
560 10 26 0.013836 23.749 13.923 26.145
561 11 5 -0.130200 9.483 18.110 7.234
562 11 26 0.013836 9.234 18.959 6.550
563 11 26 0.013836 10.569 18.282 7.359
564 11 5 0.178101 9.050 16.728 6.750
565 11 20 0.113844 9.307 16.692 5.698
566 11 63 -0.45099 7.668 16.477 6.758
567 11 79 1.164535 6.705 16.391 8.097
568 11 61 -0.652468 5.898 15.179 7.900
569 11 61 -0.652468 7.587 16.242 9.216
570 11 61 -0.652468 5.905 17.608 8.158
571 11 5 -0.065823 9.812 15.549 7.433
572 11 26 0.04642 10.905 15.783 7.344
573 11 26 0.04642 9.704 15.520 8.504
574 11 5 0.189838 9.388 14.199 6.862
575 11 20 0.031234 8.325 14.138 6.974
576 11 62 -0.648025 9.949 13.060 7.582
577 11 28 0.392967 10.891 13.110 7.440
578 11 5 -0.065823 9.882 14.060 5.338
579 11 26 0.04642 10.003 15.043 4.841
580 11 26 0.04642 10.866 13.515 5.258
581 11 5 0.189838 8.821 13.446 4.431
582 11 20 0.031234 7.888 14.099 4.339
583 11 62 -0.648025 8.539 12.110 4.837
584 11 28 0.392967 8.578 11.552 4.014
585 11 5 -0.065823 9.382 13.389 2.991
586 11 26 0.04642 9.693 14.462 2.774
587 11 26 0.04642 10.220 12.727 2.966
588 11 5 0.178101 8.266 12.946 1.974
589 11 20 0.113844 7.434 12.431 2.471
590 11 63 -0.45099 8.923 12.137 0.960
591 11 79 1.164535 8.780 10.498 1.057
592 11 61 -0.652468 9.688 10.048 -0.006
593 11 61 -0.652468 7.330 10.300 0.800
594 11 61 -0.652468 9.224 10.172 2.425
595 11 5 -0.065823 7.724 14.101 1.115
596 11 26 0.04642 8.557 14.640 0.570
597 11 26 0.04642 7.134 13.635 0.373
598 11 5 0.189838 7.011 15.275 1.843
599 11 20 0.031234 7.595 15.591 2.700
600 11 62 -0.648025 5.785 14.788 2.494
601 11 28 0.392967 5.951 14.186 3.217
602 11 5 -0.065823 6.717 16.489 0.914
603 11 26 0.04642 7.609 16.957 0.407
604 11 26 0.04642 6.087 16.043 0.066
605 11 5 0.178101 6.006 17.609 1.704
606 11 20 0.113844 5.094 17.147 2.064
607 11 63 -0.45099 6.723 18.187 2.789
608 11 79 1.164535 8.223 18.810 2.642
609 11 61 -0.652468 8.246 19.452 1.354
610 11 61 -0.652468 8.322 19.707 3.785
611 11 61 -0.652468 9.152 17.681 2.711
612 11 26 0.013836 8.994 18.376 8.160
613 11 5 -0.130201 5.545 18.766 0.748
614 11 26 0.013836 6.319 19.027 -0.005
615 11 26 0.013836 5.297 19.727 1.246
616 11 26 0.013836 4.588 18.558 0.303
617 12 5 -0.130200 35.815 23.242 20.904
618 12 26 0.013836 36.498 22.621 21.535
619 12 26 0.013836 36.060 24.247 21.297
620 12 5 0.178101 34.345 22.828 20.924
621 12 20 0.113844 34.113 22.620 21.962
622 12 63 -0.45099 34.035 21.623 20.271
623 12 79 1.164535 34.172 21.334 18.651
624 12 61 -0.652468 32.908 20.684 18.279
625 12 61 -0.652468 34.290 22.617 18.024
626 12 61 -0.652468 35.337 20.485 18.440
627 12 5 -0.065823 33.364 23.952 20.467
628 12 26 0.04642 33.626 24.865 21.062
629 12 26 0.04642 33.542 24.310 19.468
630 12 5 0.189838 31.908 23.505 20.573
631 12 20 0.031234 31.820 22.606 19.998
632 12 62 -0.648025 30.963 24.459 20.001
633 12 28 0.392967 31.029 25.238 20.548
634 12 5 -0.065823 31.493 23.324 22.115
635 12 26 0.04642 32.362 23.096 22.764
636 12 26 0.04642 30.990 24.244 22.531
637 12 5 0.189838 30.660 22.068 22.355
638 12 20 0.031234 31.237 21.108 22.131
639 12 62 -0.648025 29.420 22.159 21.661
640 12 28 0.392967 28.712 21.920 22.317
641 12 5 -0.065823 30.344 21.973 23.866
642 12 26 0.04642 31.366 22.021 24.365
643 12 26 0.04642 29.731 22.800 24.151
644 12 5 0.178101 29.655 20.599 24.207
645 12 20 0.113844 29.212 20.129 23.321
646 12 63 -0.45099 28.693 20.866 25.264
647 12 79 1.164535 27.102 20.990 24.855
648 12 61 -0.652468 26.493 21.415 26.122
649 12 61 -0.652468 26.787 19.606 24.415
650 12 61 -0.652468 27.075 22.008 23.788
651 12 5 -0.065823 30.589 19.601 24.913
652 12 26 0.04642 31.049 20.050 25.845
653 12 26 0.04642 29.958 18.818 25.236
654 12 5 0.189838 31.851 19.117 24.142
655 12 20 0.031234 32.358 19.961 23.690
656 12 62 -0.648025 31.445 18.354 22.951
657 12 28 0.392967 31.007 18.885 22.289
658 12 5 -0.065823 32.839 18.305 25.027
659 12 26 0.04642 33.239 18.831 25.940
660 12 26 0.04642 32.204 17.440 25.431
661 12 5 0.178101 34.060 17.855 24.194
662 12 20 0.113844 33.636 17.247 23.402
663 12 63 -0.45099 34.875 18.881 23.640
664 12 79 1.164535 35.526 20.084 24.526
665 12 61 -0.652468 35.900 19.479 25.777
666 12 61 -0.652468 36.638 20.539 23.700
667 12 61 -0.652468 34.479 21.094 24.693
668 12 26 0.013836 36.236 23.159 19.913
669 12 5 -0.130201 34.981 16.889 25.021
670 12 26 0.013836 35.123 17.232 26.068
671 12 26 0.013836 36.008 16.752 24.624
672 12 26 0.013836 34.643 15.869 24.962
673 13 5 -0.130200 15.706 19.116 24.763
674 13 26 0.013836 15.037 18.360 24.282
675 13 26 0.013836 15.217 20.046 24.418
676 13 5 0.178101 17.195 18.960 24.461
677 13 20 0.113844 17.259 18.752 23.399
678 13 63 -0.45099 17.831 17.854 25.050
679 13 79 1.164535 18.058 17.614 26.667
680 13 61 -0.652468 19.464 17.206 26.791
681 13 61 -0.652468 17.837 18.882 27.297
682 13 61 -0.652468 17.123 16.586 27.108
683 13 5 -0.065823 18.031 20.254 24.710
684 13 26 0.04642 17.502 21.083 24.171
685 13 26 0.04642 17.985 20.617 25.722
686 13 5 0.189838 19.495 20.060 24.326
687 13 20 0.031234 19.848 19.214 24.879
688 13 62 -0.648025 20.349 21.185 24.696
689 13 28 0.392967 20.043 21.918 24.167
690 13 5 -0.065823 19.636 19.888 22.733
691 13 26 0.04642 18.713 19.488 22.268
692 13 26 0.04642 19.880 20.863 22.221
693 13 5 0.189838 20.616 18.786 22.346
694 13 20 0.031234 20.271 17.751 22.685
695 13 62 -0.648025 21.929 19.118 22.785
696 13 28 0.392967 22.531 18.976 22.005
697 13 5 -0.065823 20.650 18.683 20.803
698 13 26 0.04642 19.559 18.534 20.513
699 13 26 0.04642 21.042 19.591 20.398
700 13 5 0.178101 21.493 17.435 20.345
701 13 20 0.113844 22.174 17.086 21.131
702 13 63 -0.45099 22.174 17.819 19.119
703 13 79 1.164535 23.767 18.232 19.210
704 13 61 -0.652468 24.039 18.702 17.846
705 13 61 -0.652468 24.399 16.942 19.591
706 13 61 -0.652468 23.816 19.282 20.244
707 13 5 -0.065823 20.633 16.263 19.842
708 13 26 0.04642 19.933 16.587 19.014
709 13 26 0.04642 21.319 15.588 19.408
710 13 5 0.189838 19.648 15.602 20.848
711 13 20 0.031234 19.095 16.364 21.383
712 13 62 -0.648025 20.401 14.970 21.942
713 13 28 0.392967 20.856 15.596 22.503
714 13 5 -0.065823 18.667 14.596 20.178
715 13 26 0.04642 18.015 15.007 19.356
716 13 26 0.04642 19.357 13.837 19.665
717 13 5 0.178101 17.727 13.978 21.235
718 13 20 0.113844 18.395 13.486 21.934
719 13 63 -0.45099 16.864 14.870 21.930
720 13 79 1.164535 15.854 15.906 21.178
721 13 61 -0.652468 15.362 15.194 20.029
722 13 61 -0.652468 14.858 16.198 22.201
723 13 61 -0.652468 16.655 17.073 20.803
724 13 26 0.013836 15.502 19.003 25.818
725 13 5 -0.130201 16.852 12.834 20.610
726 13 26 0.013836 16.454 13.104 19.609
727 13 26 0.013836 15.959 12.540 21.201
728 13 26 0.013836 17.369 11.891 20.610
729 14 5 -0.130200 20.625 23.154 7.961
730 14 26 0.013836 21.473 22.464 8.196
731 14 26 0.013836 20.878 23.997 8.632
732 14 5 0.178101 19.230 22.550 8.101
733 14 20 0.113844 19.249 21.979 9.023
734 14 63 -0.45099 18.870 21.596 7.133
735 14 79 1.164535 18.665 21.882 5.520
736 14 61 -0.652468 17.400 21.216 5.180
737 14 61 -0.652468 18.549 23.303 5.376
738 14 61 -0.652468 19.812 21.327 4.813
739 14 5 -0.065823 18.093 23.608 8.258
740 14 26 0.04642 18.415 24.301 9.079
741 14 26 0.04642 18.020 24.298 7.435
742 14 5 0.189838 16.733 22.947 8.464
743 14 20 0.031234 16.585 22.285 7.635