LAMMPS Description

4366  atoms
3418  bonds
4344  angles
4374  dihedrals
0  impropers

90  atom types
840  bond types
4614  angle types
985  dihedral types
38  improper types

-0.5 40.5 xlo xhi
-0.5 40.5 ylo yhi
-0.5 40.5 zlo zhi

Masses

1 12.01
2 12.01
3 12.01
4 12.01
5 12.01
6 12.01
7 12.01
8 12.01
9 12.01
10 12.01
11 12.01
12 12.01
13 12.01
14 12.01
15 12.01
16 12.01
17 12.01
18 12.01
19 12.01
20 1.008
21 1.008
22 1.008
23 1.008
24 1.008
25 1.008
26 1.008
27 1.008
28 1.008
29 1.008
30 1.008
31 1.008
32 1.008
33 19.00
34 35.45
35 79.90
36 126.9
37 14.01
38 14.01
39 14.01
40 14.01
41 14.01
42 14.01
43 14.01
44 14.01
45 14.01
46 14.01
47 14.01
48 14.01
49 14.01
50 14.01
51 14.01
52 14.01
53 14.01
54 14.01
55 14.01
56 14.01
57 14.01
58 14.01
59 14.01
60 14.01
61 16.00
62 16.00
63 16.00
64 16.00
65 30.97
66 30.97
67 30.97
68 30.97
69 30.97
70 30.97
71 30.97
72 30.97
73 30.97
74 30.97
75 30.97
76 32.06
77 32.06
78 32.06
79 32.06
80 32.06
81 32.06
82 32.06
83 32.06
84 6.94
85 39.10
86 22.99
87 35.45
88 19.00
89 79.90
90 126.9

Atoms

1 1 5 0.23943 10.446203 19.925832 1.745637
2 1 63 -0.107446 9.706479 21.081116 2.143153
3 1 5 0.096748 11.854844 20.260625 1.206728
4 1 33 -0.083444 10.571483 19.050679 2.813815
5 1 33 -0.076564 11.727598 21.167060 0.166621
6 1 33 -0.076564 12.329986 19.069843 0.678583
7 1 5 0.239938 8.308709 20.781211 2.215140
8 1 5 0.031579 7.525140 21.902913 2.940440
9 1 33 -0.098346 8.102126 19.592106 2.906137
10 1 33 -0.098346 7.792915 20.660191 0.931333
11 1 5 0.417302 6.023549 21.516227 3.077764
12 1 63 -0.075238 7.629887 23.089018 2.158826
13 1 33 -0.094088 8.081646 22.040501 4.208930
14 1 33 -0.120596 5.452979 21.325100 1.831188
15 1 33 -0.120596 5.309545 22.505086 3.723711
16 1 33 -0.120596 5.878755 20.353370 3.813516
17 1 5 0.258717 7.776741 24.288633 2.904477
18 1 5 0.054096 7.387699 25.475989 2.013855
19 1 33 -0.09756 9.099894 24.430853 3.287072
20 1 33 -0.09756 6.975345 24.323769 4.036250
21 1 33 -0.120109 8.214459 25.513148 0.905400
22 1 33 -0.120109 7.545101 26.653557 2.723069
23 1 79 1.069374 5.652449 25.368759 1.441449
24 1 61 -0.610284 5.480665 23.980839 0.445318
25 1 61 -0.610284 5.321046 26.797814 0.549709
26 1 61 -0.610284 4.612006 25.271222 2.804682
27 1 5 0.244615 12.894132 20.794662 2.248425
28 1 33 -0.110109 12.503012 22.043100 2.701840
29 1 5 0.166751 14.323823 20.867365 1.619731
30 1 33 -0.110109 12.938790 19.926297 3.326340
31 1 33 -0.087619 14.291992 21.731380 0.536666
32 1 33 -0.087619 14.633545 19.600877 1.153187
33 1 5 0.133435 15.472363 21.317499 2.585077
34 1 33 -0.056543 15.258309 22.629947 2.961730
35 1 5 0.043406 16.874739 21.146887 1.901527
36 1 33 -0.056543 15.450765 20.529182 3.723827
37 1 33 -0.026439 16.882582 21.845507 0.703952
38 1 33 -0.026439 16.988977 19.799958 1.604615
39 1 5 -0.042189 18.127145 21.625428 2.737861
40 1 63 -0.05899 17.922561 23.036775 2.900117
41 1 5 0.198119 19.451429 21.015768 2.053249
42 1 33 -0.033517 18.056542 21.055874 3.998533
43 1 33 -0.070849 19.504697 21.380202 0.717702
44 1 33 -0.070849 19.255001 19.645963 2.079427
45 1 5 0.047327 18.968674 23.948858 2.654174
46 1 5 0.014492 18.414589 25.392097 2.658988
47 1 33 -0.023915 19.548165 23.745110 1.415010
48 1 33 -0.023915 19.893794 23.872996 3.680848
49 1 5 0.258874 17.312866 25.616304 1.600803
50 1 63 -0.046319 19.498739 26.263861 2.346974
51 1 33 -0.052305 17.858305 25.625942 3.915541
52 1 33 -0.07104 17.795446 25.366321 0.328272
53 1 33 -0.07104 16.878135 26.927785 1.652254
54 1 33 -0.07104 16.226532 24.797382 1.835488
55 1 5 0.242379 19.727955 27.294478 3.288634
56 1 5 0.030285 20.825869 28.216829 2.745623
57 1 33 -0.097617 20.165252 26.753842 4.488273
58 1 33 -0.097617 18.582382 28.047089 3.503863
59 1 33 -0.112266 21.985873 27.488419 2.547463
60 1 33 -0.112266 21.083708 29.218883 3.663732
61 1 79 1.088381 20.343611 28.988294 1.159692
62 1 61 -0.614813 20.086437 27.762047 -0.015686
63 1 61 -0.614813 21.621944 30.006866 0.635768
64 1 61 -0.614813 18.915050 29.915991 1.384526
65 1 5 0.224162 20.887135 21.200219 2.688360
66 1 33 -0.097154 21.379171 22.463534 2.452234
67 1 5 0.152641 21.919902 20.186836 2.077083
68 1 33 -0.097154 20.817044 20.989425 4.054960
69 1 33 -0.114533 21.900703 20.319638 0.697116
70 1 33 -0.114533 21.504484 18.904187 2.399744
71 1 5 0.169008 23.401121 20.351934 2.559963
72 1 63 -0.058703 23.824023 21.666461 2.183461
73 1 5 0.283965 24.270299 19.199362 1.935857
74 1 33 -0.097241 23.422270 20.229891 3.941220
75 1 33 -0.09168 24.312463 19.313977 0.557250
76 1 33 -0.09168 23.751145 17.957460 2.255395
77 1 5 0.211916 25.206202 21.953214 2.348974
78 1 5 0.001658 25.445482 23.479091 2.387577
79 1 33 -0.094681 25.918871 21.437475 1.276919
80 1 33 -0.094681 25.699054 21.433498 3.538355
81 1 5 0.294487 24.864816 24.206787 1.159187
82 1 63 -0.046447 26.855407 23.691886 2.382462
83 1 33 -0.068202 24.807807 23.994858 3.514097
84 1 33 -0.089747 25.427413 23.722972 -0.008811
85 1 33 -0.089747 25.143982 25.558744 1.253705
86 1 33 -0.089747 23.491428 24.051934 1.096469
87 1 5 0.23616 27.380347 24.285783 3.553781
88 1 5 0.049903 28.908289 24.351006 3.427495
89 1 33 -0.095009 27.078296 23.519157 4.669788
90 1 33 -0.095009 26.883273 25.569845 3.716029
91 1 33 -0.119297 29.413041 23.071586 3.271496
92 1 33 -0.119297 29.442209 24.896937 4.581061
93 1 79 1.089277 29.445449 25.368106 2.005121
94 1 61 -0.616384 28.561450 24.949289 0.592873
95 1 61 -0.616384 31.111163 25.060720 1.726105
96 1 61 -0.616384 29.217222 27.027379 2.385458
97 1 33 -0.083444 9.802183 19.257548 0.707746
98 1 33 -0.09168 25.564866 19.198670 2.419167
99 2 5 0.23943 38.559061 15.031996 30.957727
100 2 63 -0.107446 38.138161 13.923000 30.162201
101 2 5 0.096748 38.871256 16.295074 30.124692
102 2 33 -0.083444 37.584719 15.342418 31.894151
103 2 33 -0.076564 39.814798 15.970098 29.163570
104 2 33 -0.076564 39.459071 17.178241 31.017524
105 2 5 0.239938 38.280989 12.699765 30.891709
106 2 5 0.031579 37.546339 11.531704 30.188730
107 2 33 -0.098346 37.755439 12.833858 32.172310
108 2 33 -0.098346 39.626349 12.366918 30.981540
109 2 5 0.417302 37.647631 10.233450 31.041630
110 2 63 -0.075238 38.174738 11.310745 28.929750
111 2 33 -0.094088 36.209002 11.898777 30.068390
112 2 33 -0.120596 38.970990 9.868743 31.219792
113 2 33 -0.120596 36.996550 9.181289 30.430123
114 2 33 -0.120596 37.067114 10.413153 32.284706
115 2 5 0.258717 37.290902 10.990766 27.865285
116 2 5 0.054096 38.090660 10.314406 26.743992
117 2 33 -0.09756 36.726774 12.155460 27.372753
118 2 33 -0.09756 36.275552 10.125829 28.246506
119 2 33 -0.120109 39.071911 11.177495 26.290331
120 2 33 -0.120109 37.243756 10.014768 25.691662
121 2 79 1.069374 38.891539 8.767228 27.305305
122 2 61 -0.610284 40.045872 9.147394 28.518194
123 2 61 -0.610284 39.658759 8.066090 25.938920
124 2 61 -0.610284 37.693427 7.700471 27.919302
125 2 5 0.244615 37.651910 17.006541 29.448334
126 2 33 -0.110109 37.120610 16.190123 28.464293
127 2 5 0.166751 38.078239 18.383093 28.841778
128 2 33 -0.110109 36.677695 17.238034 30.405032
129 2 33 -0.087619 39.056337 18.165544 27.884406
130 2 33 -0.087619 38.634992 19.129991 29.866352
131 2 5 0.133435 36.929057 19.231517 28.198960
132 2 33 -0.056543 36.443518 18.567483 27.088322
133 2 5 0.043406 37.439334 20.666823 27.821442
134 2 33 -0.056543 35.894811 19.369129 29.110037
135 2 33 -0.026439 38.543053 20.550796 26.990382
136 2 33 -0.026439 37.862959 21.241225 29.007202
137 2 5 -0.042189 36.400762 21.615009 27.100824
138 2 63 -0.05899 36.114604 20.946357 25.863448
139 2 5 0.198119 36.969742 23.120631 27.159736
140 2 33 -0.033517 35.229024 21.624204 27.839481
141 2 33 -0.070849 38.239730 23.168840 26.608250
142 2 33 -0.070849 37.117697 23.381843 28.510852
143 2 5 0.047327 36.122581 21.653674 24.644277
144 2 5 0.014492 36.033486 20.659599 23.463664
145 2 33 -0.023915 37.290815 22.374456 24.475309
146 2 33 -0.023915 34.998872 22.458659 24.574009
147 2 5 0.258874 37.195104 19.642678 23.445421
148 2 63 -0.046319 36.106015 21.421704 22.260898
149 2 33 -0.052305 34.841844 19.949271 23.599623
150 2 33 -0.07104 38.413801 20.290348 23.345378
151 2 33 -0.07104 37.058822 18.799919 22.357852
152 2 33 -0.07104 37.193356 18.868020 24.588108
153 2 5 0.242379 35.036597 21.217298 21.357571
154 2 5 0.030285 35.329540 21.996096 20.069679
155 2 33 -0.097617 33.855999 21.700240 21.901269
156 2 33 -0.097617 34.891597 19.874276 21.040791
157 2 33 -0.112266 35.453225 23.343275 20.361688
158 2 33 -0.112266 34.282714 21.830038 19.180805
159 2 79 1.088381 36.871723 21.429254 19.267637
160 2 61 -0.614813 38.196301 21.691921 20.329631
161 2 61 -0.614813 37.112034 22.344626 17.835693
162 2 61 -0.614813 36.735012 19.761841 18.876483
163 2 5 0.224162 36.137556 24.355205 26.628762
164 2 33 -0.097154 36.169712 24.425413 25.254769
165 2 5 0.152641 36.715771 25.712248 27.168498
166 2 33 -0.097154 34.822511 24.238155 27.045775
167 2 33 -0.114533 38.064016 25.771991 26.850722
168 2 33 -0.114533 36.590479 25.712847 28.549140
169 2 5 0.169008 36.029820 27.009354 26.619475
170 2 63 -0.058703 36.203758 27.010094 25.198797
171 2 5 0.283965 36.656967 28.259169 27.339232
172 2 33 -0.097241 34.678886 26.947811 26.926727
173 2 33 -0.09168 37.997880 28.382477 27.019513
174 2 33 -0.09168 36.543798 28.149110 28.713650
175 2 5 0.211916 35.830290 28.202095 24.520787
176 2 5 0.001658 35.596032 27.924425 23.019098
177 2 33 -0.094681 36.850314 29.135600 24.627106
178 2 33 -0.094681 34.650332 28.731357 25.025975
179 2 5 0.294487 36.803315 27.247903 22.340542
180 2 63 -0.046447 35.395144 29.181731 22.377206
181 2 33 -0.068202 34.512594 27.056681 22.897134
182 2 33 -0.089747 37.933915 28.038199 22.450032
183 2 33 -0.089747 36.527599 27.059769 20.997694
184 2 33 -0.089747 37.060049 26.011971 22.906818
185 2 5 0.23616 34.108283 29.378301 21.824388
186 2 5 0.049903 34.027490 30.805586 21.266590
187 2 33 -0.095009 33.130485 29.246955 22.799621
188 2 33 -0.095009 33.873852 28.476125 20.798062
189 2 33 -0.119297 34.254263 31.712917 22.287055
190 2 33 -0.119297 32.762152 31.027865 20.753424
191 2 79 1.089277 35.249639 31.103077 19.938422
192 2 61 -0.616384 36.801592 30.532565 20.404536
193 2 61 -0.616384 35.341843 32.795354 19.665223
194 2 61 -0.616384 34.724765 30.311875 18.507185
195 2 33 -0.083444 39.737913 14.736012 31.636906
196 2 33 -0.09168 36.012749 29.434890 27.004333
197 3 5 0.23943 19.628744 13.274953 5.935662
198 3 63 -0.107446 20.447895 13.246274 4.766021
199 3 5 0.096748 19.916143 14.486189 6.850589
200 3 33 -0.083444 18.289259 13.291669 5.577763
201 3 33 -0.076564 21.263835 14.488900 7.172078
202 3 33 -0.076564 19.201369 14.236713 8.012277
203 3 5 0.239938 20.461363 11.933608 4.195396
204 3 5 0.031579 21.069724 11.941052 2.771283
205 3 33 -0.098346 19.168815 11.427228 4.111599
206 3 33 -0.098346 21.232608 11.091437 4.985825
207 3 5 0.417302 20.998453 10.519123 2.141840
208 3 63 -0.075238 22.434598 12.334115 2.877866
209 3 33 -0.094088 20.312007 12.821285 2.003983
210 3 33 -0.120596 21.704398 9.609514 2.910142
211 3 33 -0.120596 21.535717 10.507467 0.870580
212 3 33 -0.120596 19.687110 10.089320 2.040944
213 3 5 0.258717 22.898758 13.181022 1.836740
214 3 5 0.054096 24.431407 13.120541 1.795467
215 3 33 -0.09756 22.509198 14.483780 2.098280
216 3 33 -0.09756 22.423510 12.812125 0.586767
217 3 33 -0.120109 24.943979 13.548850 3.006832
218 3 33 -0.120109 24.897724 13.957147 0.796936
219 3 79 1.069374 25.045857 11.427327 1.470326
220 3 61 -0.610284 24.588078 10.409889 2.775458
221 3 61 -0.610284 26.755649 11.520801 1.347439
222 3 61 -0.610284 24.379962 10.857777 -0.007048
223 3 5 0.244615 19.501421 15.892206 6.301436
224 3 33 -0.110109 20.287882 16.218770 5.209653
225 3 5 0.166751 19.633182 16.983827 7.412996
226 3 33 -0.110109 18.178190 15.845145 5.895482
227 3 33 -0.087619 20.953404 17.038647 7.830813
228 3 33 -0.087619 18.857284 16.575898 8.484984
229 3 5 0.133435 19.175514 18.426885 7.010774
230 3 33 -0.056543 20.020527 18.912764 6.030937
231 3 5 0.043406 19.155662 19.374840 8.261372
232 3 33 -0.056543 17.892478 18.373910 6.491471
233 3 33 -0.026439 20.406381 19.361275 8.859563
234 3 33 -0.026439 18.257341 18.809677 9.149649
235 3 5 -0.042189 18.774843 20.884750 7.992809
236 3 63 -0.05899 19.821690 21.363803 7.135662
237 3 5 0.198119 18.429520 21.575100 9.406413
238 3 33 -0.033517 17.600471 20.917248 7.259006
239 3 33 -0.070849 19.491816 21.418666 10.281850
240 3 33 -0.070849 17.386855 20.819944 9.914570
241 3 5 0.047327 20.461197 22.592255 7.397716
242 3 5 0.014492 21.698413 22.742075 6.482936
243 3 33 -0.023915 20.914464 22.668315 8.702175
244 3 33 -0.023915 19.603538 23.631878 7.082652
245 3 5 0.258874 22.726963 21.606313 6.672534
246 3 63 -0.046319 22.337644 23.967965 6.831194
247 3 33 -0.052305 21.253523 22.703699 5.162458
248 3 33 -0.07104 23.183996 21.570003 7.978103
249 3 33 -0.07104 23.809152 21.814296 5.837529
250 3 33 -0.07104 22.175078 20.380582 6.358150
251 3 5 0.242379 22.537144 24.865363 5.755873
252 3 5 0.030285 23.349464 26.062720 6.263298
253 3 33 -0.097617 21.316074 25.330761 5.292145
254 3 33 -0.097617 23.234234 24.264077 4.717795
255 3 33 -0.112266 22.658162 26.691501 7.284178
256 3 33 -0.112266 23.534678 26.966014 5.232147
257 3 79 1.088381 24.988088 25.554474 6.895364
258 3 61 -0.614813 24.779980 24.485288 8.223846
259 3 61 -0.614813 25.826735 26.953825 7.428851
260 3 61 -0.614813 25.874678 24.788219 5.638873
261 3 5 0.224162 17.900327 23.061035 9.509318
262 3 33 -0.097154 18.922744 23.967708 9.346755
263 3 5 0.152641 17.257363 23.345577 10.913899
264 3 33 -0.097154 16.942948 23.277914 8.532931
265 3 33 -0.114533 18.180350 23.014518 11.894107
266 3 33 -0.114533 16.152849 22.519758 11.055127
267 3 5 0.169008 16.793604 24.821231 11.162520
268 3 63 -0.058703 17.953234 25.652776 11.051297
269 3 5 0.283965 16.083626 24.901331 12.563561
270 3 33 -0.097241 15.877838 25.158974 10.177372
271 3 33 -0.09168 16.978908 24.615539 13.579566
272 3 33 -0.09168 15.034234 24.003098 12.640377
273 3 5 0.211916 17.792398 27.010371 11.440026
274 3 5 0.001658 18.909574 27.887443 10.831989
275 3 33 -0.094681 17.876067 27.110903 12.820633
276 3 33 -0.094681 16.582181 27.529844 11.000529
277 3 5 0.294487 20.323195 27.372003 11.166132
278 3 63 -0.046447 18.786155 29.190866 11.396839
279 3 33 -0.068202 18.778191 27.866108 9.444915
280 3 33 -0.089747 20.519565 27.331421 12.535294
281 3 33 -0.089747 21.263467 28.223131 10.612847
282 3 33 -0.089747 20.524295 26.106812 10.643680
283 3 5 0.23616 18.448151 30.215380 10.482298
284 3 5 0.049903 18.256817 31.523722 11.261043
285 3 33 -0.095009 17.253616 29.924460 9.839746
286 3 33 -0.095009 19.456415 30.387741 9.546394
287 3 33 -0.119297 17.246887 31.361661 12.193675
288 3 33 -0.119297 17.890046 32.530400 10.385884
289 3 79 1.089277 19.778921 32.042734 12.132827
290 3 61 -0.616384 20.470243 30.720272 12.983987
291 3 61 -0.616384 19.358782 33.267011 13.260466
292 3 61 -0.616384 20.895086 32.667630 10.986698
293 3 33 -0.083444 19.854599 12.151778 6.726895
294 3 33 -0.09168 15.529061 26.144763 12.799843
295 4 5 0.23943 7.150156 29.830788 24.608167
296 4 63 -0.107446 6.486328 31.079473 24.408145
297 4 5 0.096748 8.070061 29.435091 23.431741
298 4 33 -0.083444 7.903723 29.873860 25.771298
299 4 33 -0.076564 7.322203 29.433582 22.265404
300 4 33 -0.076564 8.449721 28.127980 23.696279
301 4 5 0.239938 5.355124 31.190943 25.278110
302 4 5 0.031579 4.809697 32.639862 25.315534
303 4 33 -0.098346 5.701431 30.824880 26.574332
304 4 33 -0.098346 4.337127 30.362041 24.824840
305 4 5 0.417302 3.633359 32.752309 26.328817
306 4 63 -0.075238 4.333601 32.964619 24.012996
307 4 33 -0.094088 5.853191 33.462497 25.730368
308 4 33 -0.120596 2.597083 31.908096 25.968999
309 4 33 -0.120596 3.135309 34.038621 26.376139
310 4 33 -0.120596 4.049430 32.422296 27.606513
311 4 5 0.258717 4.593886 34.295987 23.593055
312 4 5 0.054096 3.637572 34.649387 22.446344
313 4 33 -0.09756 5.896753 34.384393 23.132553
314 4 33 -0.09756 4.410318 35.227906 24.604098
315 4 33 -0.120109 3.841262 33.780145 21.389692
316 4 33 -0.120109 3.894154 35.938653 22.014621
317 4 79 1.069374 1.882545 34.544449 22.955373
318 4 61 -0.610284 1.518428 32.916643 23.362528
319 4 61 -0.610284 0.933517 35.060819 21.621231
320 4 61 -0.610284 1.620533 35.580652 24.300018
321 4 5 0.244615 9.360088 30.298739 23.230763
322 4 33 -0.110109 9.009115 31.581552 22.845581
323 4 5 0.166751 10.303001 29.649594 22.165829
324 4 33 -0.110109 10.046752 30.369388 24.431370
325 4 33 -0.087619 9.625900 29.569815 20.959291
326 4 33 -0.087619 10.580240 28.361446 22.591736
327 4 5 0.133435 11.667754 30.380114 21.926146
328 4 33 -0.056543 11.424420 31.623154 21.373113
329 4 5 0.043406 12.604332 29.523875 21.002738
330 4 33 -0.056543 12.310666 30.562219 23.139474
331 4 33 -0.026439 11.938132 29.240759 19.820224
332 4 33 -0.026439 12.803471 28.328423 21.671065
333 4 5 -0.042189 13.995222 30.169153 20.620612
334 4 63 -0.05899 13.644232 31.340900 19.869680
335 4 5 0.198119 14.940310 29.009485 20.023884
336 4 33 -0.033517 14.613160 30.600065 21.782996
337 4 33 -0.070849 14.308827 28.383996 18.961186
338 4 33 -0.070849 15.021523 28.072700 21.039499
339 4 5 0.047327 14.281979 31.629824 18.646349
340 4 5 0.014492 13.548748 32.791487 17.937206
341 4 33 -0.023915 14.252554 30.549622 17.783129
342 4 33 -0.023915 15.572647 32.064194 18.893653
343 4 5 0.258874 12.063834 32.479560 17.651639
344 4 63 -0.046319 14.196305 33.000011 16.684252
345 4 33 -0.052305 13.601093 33.900290 18.780341
346 4 33 -0.07104 11.942808 31.363384 16.842804
347 4 33 -0.07104 11.479054 33.552303 17.004432
348 4 33 -0.07104 11.369561 32.258904 18.824297
349 4 5 0.242379 14.648032 34.321221 16.456690
350 4 5 0.030285 15.192512 34.411617 15.026174
351 4 33 -0.097617 15.675015 34.630603 17.335462
352 4 33 -0.097617 13.617685 35.239610 16.598217
353 4 33 -0.112266 16.239026 33.519109 14.872236
354 4 33 -0.112266 15.663339 35.690839 14.790737
355 4 79 1.088381 13.908332 34.024456 13.783637
356 4 61 -0.614813 13.359126 32.413138 14.014642
357 4 61 -0.614813 14.601785 34.160859 12.219465
358 4 61 -0.614813 12.605333 35.133183 13.941363
359 4 5 0.224162 16.449842 29.272061 19.635289
360 4 33 -0.097154 16.548141 29.933850 18.432711
361 4 5 0.152641 17.245642 27.926557 19.481879
362 4 33 -0.097154 17.054015 30.032823 20.621777
363 4 33 -0.114533 16.571264 27.118416 18.579418
364 4 33 -0.114533 17.257216 27.292268 20.714524
365 4 5 0.169008 18.728209 28.065723 18.994983
366 4 63 -0.058703 18.692809 28.686187 17.705661
367 4 5 0.283965 19.400098 26.643773 19.000008
368 4 33 -0.097241 19.402991 28.882125 19.890176
369 4 33 -0.09168 18.782956 25.810971 18.082920
370 4 33 -0.09168 19.312780 26.057885 20.250231
371 4 5 0.211916 19.921927 28.724649 16.993038
372 4 5 0.001658 19.880435 29.808648 15.892915
373 4 33 -0.094681 20.139972 27.501307 16.377346
374 4 33 -0.094681 20.988891 29.031260 17.826831
375 4 5 0.294487 18.682620 29.644912 14.936837
376 4 63 -0.046447 21.068238 29.675562 15.115348
377 4 33 -0.068202 19.752712 31.052751 16.507396
378 4 33 -0.089747 18.720310 28.411810 14.310058
379 4 33 -0.089747 18.732053 30.631526 13.967918
380 4 33 -0.089747 17.485283 29.768016 15.618993
381 4 5 0.23616 21.959570 30.771580 15.182671
382 4 5 0.049903 23.220289 30.427915 14.378128
383 4 33 -0.095009 22.344064 31.010955 16.493886
384 4 33 -0.095009 21.376256 31.909926 14.647753
385 4 33 -0.119297 23.812346 29.295504 14.910236
386 4 33 -0.119297 24.119689 31.475647 14.462766
387 4 79 1.089277 22.855722 30.121194 12.612005
388 4 61 -0.616384 21.510341 29.065925 12.445674
389 4 61 -0.616384 24.231508 29.378965 11.902605
390 4 61 -0.616384 22.540930 31.621085 11.836658
391 4 33 -0.083444 6.229535 28.792630 24.723356
392 4 33 -0.09168 20.749436 26.700573 18.707512
393 5 5 0.23943 3.590515 28.412697 17.086825
394 5 63 -0.107446 2.854684 28.558183 18.302258
395 5 5 0.096748 4.138518 26.983959 16.874267
396 5 33 -0.083444 2.792967 28.752261 16.004603
397 5 33 -0.076564 4.900914 26.633106 17.976670
398 5 33 -0.076564 4.987960 27.083506 15.782847
399 5 5 0.239938 2.748787 29.939588 18.661971
400 5 5 0.031579 1.701982 30.154610 19.782783
401 5 33 -0.098346 2.367727 30.700076 17.561709
402 5 33 -0.098346 3.975440 30.393206 19.129306
403 5 5 0.417302 1.546756 31.670973 20.098548
404 5 63 -0.075238 2.162949 29.481672 20.950432
405 5 33 -0.094088 0.489170 29.656551 19.315109
406 5 33 -0.120596 2.750895 32.207072 20.521255
407 5 33 -0.120596 0.615746 31.881455 21.095446
408 5 33 -0.120596 1.120875 32.366669 18.980888
409 5 5 0.258717 1.151705 28.836126 21.710231
410 5 5 0.054096 1.677657 28.595815 23.131498
411 5 33 -0.09756 0.853409 27.614344 21.130914
412 5 33 -0.09756 -0.012707 29.583888 21.807070
413 5 33 -0.120109 2.803295 27.793489 23.078624
414 5 33 -0.120109 0.707979 27.949320 23.877282
415 5 79 1.069374 2.116848 30.158500 23.977292
416 5 61 -0.610284 3.415298 30.900845 23.134048
417 5 61 -0.610284 2.587206 29.756195 25.578586
418 5 61 -0.610284 0.743727 31.189993 24.008895
419 5 5 0.244615 3.082634 25.865155 16.584729
420 5 33 -0.110109 2.297367 25.661135 17.706731
421 5 5 0.166751 3.785365 24.533692 16.162905
422 5 33 -0.110109 2.267484 26.273617 15.542307
423 5 33 -0.087619 4.607616 24.115600 17.197152
424 5 33 -0.087619 4.581309 24.817620 15.065891
425 5 5 0.133435 2.833161 23.352830 15.772351
426 5 33 -0.056543 2.119912 22.958750 16.888677
427 5 5 0.043406 3.648293 22.154587 15.170038
428 5 33 -0.056543 1.933727 23.786235 14.812226
429 5 33 -0.026439 4.626077 21.771771 16.075416
430 5 33 -0.026439 4.285385 22.656769 14.048722
431 5 5 -0.042189 2.821609 20.862523 14.790378
432 5 63 -0.05899 2.290697 20.404746 16.042838
433 5 5 0.198119 3.742852 19.934781 13.849787
434 5 33 -0.033517 1.745208 21.244816 14.006870
435 5 33 -0.070849 4.942065 19.658413 14.486059
436 5 33 -0.070849 4.049288 20.738193 12.765231
437 5 5 0.047327 2.380653 19.046780 16.409679
438 5 5 0.014492 1.965263 18.877272 17.889101
439 5 33 -0.023915 3.673482 18.568266 16.298019
440 5 33 -0.023915 1.484773 18.308157 15.656356
441 5 5 0.258874 2.839660 19.703181 18.857151
442 5 63 -0.046319 2.132199 17.500956 18.221661
443 5 33 -0.052305 0.649906 19.322200 18.011314
444 5 33 -0.07104 4.168575 19.330322 18.758812
445 5 33 -0.07104 2.422352 19.490297 20.157980
446 5 33 -0.07104 2.733683 21.053621 18.590858
447 5 5 0.242379 0.981521 16.868878 18.748780
448 5 5 0.030285 1.359397 15.446428 19.178724
449 5 33 -0.097617 -0.002474 16.784291 17.775513
450 5 33 -0.097617 0.490861 17.550674 19.853085
451 5 33 -0.112266 1.828628 14.741523 18.084014
452 5 33 -0.112266 0.240973 14.800943 19.674702
453 5 79 1.088381 2.653573 15.447171 20.470242
454 5 61 -0.614813 4.076913 16.182873 19.850419
455 5 61 -0.614813 3.003173 13.821373 20.895305
456 5 61 -0.614813 2.086444 16.300330 21.849533
457 5 5 0.224162 3.199501 18.605478 13.189210
458 5 33 -0.097154 3.146264 17.578753 14.103991
459 5 5 0.152641 4.128990 18.124927 12.017743
460 5 33 -0.097154 1.930024 18.827799 12.683301
461 5 33 -0.114533 5.423944 18.016984 12.501226
462 5 33 -0.114533 4.109889 19.096532 11.029061
463 5 5 0.169008 3.740954 16.757026 11.359933
464 5 63 -0.058703 3.804470 15.761667 12.386484
465 5 5 0.283965 4.704941 16.484872 10.147473
466 5 33 -0.097241 2.442183 16.858368 10.884393
467 5 33 -0.09168 6.008142 16.330864 10.587273
468 5 33 -0.09168 4.670158 17.529725 9.241373
469 5 5 0.211916 3.683515 14.411163 11.960398
470 5 5 0.001658 3.278494 13.501191 13.141481
471 5 33 -0.094681 4.905135 13.965212 11.478779
472 5 33 -0.094681 2.708575 14.267203 10.982440
473 5 5 0.294487 4.231201 13.625950 14.346653
474 5 63 -0.046447 3.343007 12.152032 12.684529
475 5 33 -0.068202 2.010405 13.883098 13.574831
476 5 33 -0.089747 5.525118 13.294107 13.985445
477 5 33 -0.089747 3.819615 12.762893 15.346844
478 5 33 -0.089747 4.220317 14.912971 14.854163
479 5 5 0.23616 2.105563 11.468325 12.645320
480 5 5 0.049903 2.333819 10.076430 12.040890
481 5 33 -0.095009 1.199959 12.139648 11.836847
482 5 33 -0.095009 1.583389 11.328490 13.922036
483 5 33 -0.119297 2.849410 10.207614 10.763007
484 5 33 -0.119297 1.126378 9.405913 11.961403
485 5 79 1.089277 3.490135 9.067396 13.036360
486 5 61 -0.616384 4.886484 9.978345 13.450713
487 5 61 -0.616384 3.971234 7.716911 12.092074
488 5 61 -0.616384 2.684211 8.527096 14.453574
489 5 33 -0.083444 4.708625 29.242389 17.081718
490 5 33 -0.09168 4.343514 15.358644 9.432997
491 6 5 0.23943 20.363327 13.836273 23.870685
492 6 63 -0.107446 19.372606 14.859179 23.761028
493 6 5 0.096748 20.786369 13.249674 22.505505
494 6 33 -0.083444 21.487912 14.330520 24.513818
495 6 33 -0.076564 19.654486 12.794557 21.848735
496 6 33 -0.076564 21.571095 12.149137 22.814830
497 6 5 0.239938 18.714086 15.056048 25.016608
498 6 5 0.031579 17.871547 16.355426 25.016943
499 6 33 -0.098346 19.645961 15.143803 26.045215
500 6 33 -0.098346 17.857987 13.990836 25.264132
501 6 5 0.417302 17.232343 16.588947 26.416960
502 6 63 -0.075238 16.834724 16.207845 24.051564
503 6 33 -0.094088 18.735734 17.407096 24.725626
504 6 33 -0.120596 16.402774 15.534205 26.756616
505 6 33 -0.120596 16.478087 17.744642 26.435865
506 6 33 -0.120596 18.207961 16.715460 27.389943
507 6 5 0.258717 16.538033 17.378896 23.305070
508 6 5 0.054096 15.138764 17.234209 22.692302
509 6 33 -0.09756 17.462058 17.516740 22.283054
510 6 33 -0.09756 16.548033 18.530525 24.078393
511 6 33 -0.120109 15.111033 16.131230 21.857885
512 6 33 -0.120109 14.845097 18.361489 21.945692
513 6 79 1.069374 13.844547 17.029023 23.970246
514 6 61 -0.610284 14.123548 15.559138 24.812688
515 6 61 -0.610284 12.331564 16.983921 23.160261
516 6 61 -0.610284 13.895833 18.366164 25.047213
517 6 5 0.244615 21.601531 14.194237 21.560116
518 6 33 -0.110109 20.798614 15.240397 21.138183
519 6 5 0.166751 22.157337 13.404627 20.330419
520 6 33 -0.110109 22.675887 14.715812 22.261310
521 6 33 -0.087619 21.091292 12.874076 19.621456
522 6 33 -0.087619 22.914079 12.354682 20.822902
523 6 5 0.133435 23.056881 14.222983 19.343114
524 6 33 -0.056543 22.289322 15.197752 18.734111
525 6 5 0.043406 23.719981 13.278710 18.279322
526 6 33 -0.056543 24.068907 14.847156 20.053657
527 6 33 -0.026439 22.726944 12.564863 17.626162
528 6 33 -0.026439 24.483857 12.376461 18.998949
529 6 5 -0.042189 24.606211 13.978338 17.173839
530 6 63 -0.05899 23.682116 14.811625 16.458462
531 6 5 0.198119 25.491123 12.845291 16.447724
532 6 33 -0.033517 25.509889 14.818733 17.802945
533 6 33 -0.070849 24.667939 11.848642 15.949335
534 6 33 -0.070849 26.226759 12.272592 17.470706
535 6 5 0.047327 23.659159 14.816344 15.049141
536 6 5 0.014492 22.421404 15.596601 14.550010
537 6 33 -0.023915 23.563227 13.537245 14.531888
538 6 33 -0.023915 24.772471 15.488070 14.574819
539 6 5 0.258874 21.090586 15.000801 15.057714
540 6 63 -0.046319 22.416021 15.518096 13.126452
541 6 33 -0.052305 22.521531 16.900124 15.033606
542 6 33 -0.07104 20.946587 13.690413 14.637173
543 6 33 -0.07104 20.031278 15.737084 14.560343
544 6 33 -0.07104 21.025379 15.037316 16.436207
545 6 5 0.242379 22.368178 16.764338 12.458599
546 6 5 0.030285 22.230967 16.506804 10.953323
547 6 33 -0.097617 23.544131 17.466002 12.676435
548 6 33 -0.097617 21.285251 17.522699 12.879602
549 6 33 -0.112266 23.316070 15.771577 10.508966
550 6 33 -0.112266 22.207621 17.713868 10.278069
551 6 79 1.088381 20.701483 15.586704 10.557088
552 6 61 -0.614813 20.742186 14.053326 11.330671
553 6 61 -0.614813 20.627143 15.354905 8.858011
554 6 61 -0.614813 19.337142 16.489722 11.081580
555 6 5 0.224162 26.579119 13.199010 15.356950
556 6 33 -0.097154 25.995711 13.483085 14.143378
557 6 5 0.152641 27.565132 11.999604 15.119434
558 6 33 -0.097154 27.311458 14.296884 15.775634
559 6 33 -0.114533 26.818596 10.871552 14.815302
560 6 33 -0.114533 28.249522 11.766425 16.302274
561 6 5 0.169008 28.621705 12.203835 13.980846
562 6 63 -0.058703 27.896859 12.403742 12.762972
563 6 5 0.283965 29.584935 10.960933 13.952825
564 6 33 -0.097241 29.363426 13.337599 14.276890
565 6 33 -0.09168 28.888823 9.813641 13.614266
566 6 33 -0.09168 30.177509 10.764195 15.187368
567 6 5 0.211916 28.665997 12.409202 11.567799
568 6 5 0.001658 27.891438 13.101745 10.424343
569 6 33 -0.094681 28.925546 11.104209 11.176890
570 6 33 -0.094681 29.859063 13.100810 11.728756
571 6 5 0.294487 26.496230 12.489805 10.190721
572 6 63 -0.046447 28.643048 12.920021 9.226321
573 6 33 -0.068202 27.704724 14.439180 10.767995
574 6 33 -0.089747 26.596432 11.145970 9.876269
575 6 33 -0.089747 25.880653 13.142429 9.137251
576 6 33 -0.089747 25.699688 12.632536 11.312887
577 6 5 0.23616 29.159440 14.104956 8.652276
578 6 5 0.049903 30.019098 13.727099 7.438595
579 6 33 -0.095009 29.971161 14.774350 9.556402
580 6 33 -0.095009 28.130304 14.936551 8.238090
581 6 33 -0.119297 31.053142 12.901554 7.845108
582 6 33 -0.119297 30.562384 14.872736 6.885258
583 6 79 1.089277 29.055397 12.862694 6.146208
584 6 61 -0.616384 28.091372 11.620655 6.838524
585 6 61 -0.616384 30.159679 12.153435 5.039659
586 6 61 -0.616384 28.066317 14.003883 5.328076
587 6 33 -0.083444 19.881199 12.755585 24.604339
588 6 33 -0.09168 30.626948 11.125337 13.060260
589 7 5 0.23943 26.399573 35.311700 20.727204
590 7 63 -0.107446 25.609998 35.333511 19.537251
591 7 5 0.096748 26.403372 33.935959 21.430126
592 7 33 -0.083444 27.707183 35.670072 20.436828
593 7 33 -0.076564 25.092867 33.562886 21.681184
594 7 33 -0.076564 27.024625 34.157272 22.649849
595 7 5 0.239938 25.286161 36.679914 19.175014
596 7 5 0.031579 24.712516 36.757892 17.738662
597 7 33 -0.098346 26.419133 37.484348 19.233199
598 7 33 -0.098346 24.326260 37.177367 20.046782
599 7 5 0.417302 24.445160 38.238495 17.339294
600 7 63 -0.075238 23.481779 36.041269 17.716836
601 7 33 -0.094088 25.668232 36.217047 16.883215
602 7 33 -0.120596 23.532586 38.819572 18.202769
603 7 33 -0.120596 23.934299 38.327011 16.060202
604 7 33 -0.120596 25.615027 38.976746 17.369761
605 7 5 0.258717 23.246616 35.287375 16.536590
606 7 5 0.054096 21.745180 34.989440 16.430298
607 7 33 -0.09756 23.936257 34.089129 16.613669
608 7 33 -0.09756 23.631867 35.954279 15.382813