LAMMPS Description

5347  atoms
4318  bonds
5049  angles
6120  dihedrals
1122  impropers

90  atom types
840  bond types
4614  angle types
985  dihedral types
38  improper types

-0.5 40.5 xlo xhi
-0.5 40.5 ylo yhi
-0.5 40.5 zlo zhi

Masses

1 12.01
2 12.01
3 12.01
4 12.01
5 12.01
6 12.01
7 12.01
8 12.01
9 12.01
10 12.01
11 12.01
12 12.01
13 12.01
14 12.01
15 12.01
16 12.01
17 12.01
18 12.01
19 12.01
20 1.008
21 1.008
22 1.008
23 1.008
24 1.008
25 1.008
26 1.008
27 1.008
28 1.008
29 1.008
30 1.008
31 1.008
32 1.008
33 19.00
34 35.45
35 79.90
36 126.9
37 14.01
38 14.01
39 14.01
40 14.01
41 14.01
42 14.01
43 14.01
44 14.01
45 14.01
46 14.01
47 14.01
48 14.01
49 14.01
50 14.01
51 14.01
52 14.01
53 14.01
54 14.01
55 14.01
56 14.01
57 14.01
58 14.01
59 14.01
60 14.01
61 16.00
62 16.00
63 16.00
64 16.00
65 30.97
66 30.97
67 30.97
68 30.97
69 30.97
70 30.97
71 30.97
72 30.97
73 30.97
74 30.97
75 30.97
76 32.06
77 32.06
78 32.06
79 32.06
80 32.06
81 32.06
82 32.06
83 32.06
84 6.94
85 39.10
86 22.99
87 35.45
88 19.00
89 79.90
90 126.9

Atoms

1 1 5 -0.051233 39.323060 27.592253 36.127331
2 1 26 -0.000556 39.565930 26.536675 35.881337
3 1 26 -0.000556 39.556365 27.762645 37.199949
4 1 5 0.030247 37.845462 27.887181 35.823031
5 1 26 0.028561 37.693001 27.659366 34.744311
6 1 6 0.077933 37.578915 29.362203 36.077880
7 1 6 -0.200132 37.714842 29.917693 37.365165
8 1 25 0.120991 37.992200 29.297916 38.207494
9 1 6 -0.123165 37.500382 31.282838 37.575163
10 1 25 0.137797 37.614928 31.694423 38.569858
11 1 6 -0.043312 37.151328 32.114382 36.506384
12 1 79 1.139467 36.915972 33.871470 36.786656
13 1 6 -0.123165 37.008545 31.571422 35.224471
14 1 25 0.137797 36.742269 32.203557 34.387661
15 1 6 -0.200132 37.220525 30.205933 35.010973
16 1 25 0.120991 37.113493 29.810107 34.008928
17 1 61 -0.686299 38.457513 34.582900 37.037914
18 1 61 -0.686299 36.162591 34.578021 35.414693
19 1 61 -0.686299 35.922993 34.078754 38.171288
20 1 5 -0.167947 36.940401 26.923430 36.636941
21 1 26 0.053829 37.317359 25.897559 36.426790
22 1 26 0.053829 37.069229 27.098139 37.726943
23 1 5 0.061335 35.432310 26.925201 36.257730
24 1 26 0.066322 35.370802 26.715991 35.165989
25 1 6 0.022005 34.784403 28.266428 36.553153
26 1 6 -0.142215 34.720542 28.777963 37.863057
27 1 25 0.122111 35.128561 28.216528 38.693227
28 1 6 -0.138255 34.129846 30.021505 38.109874
29 1 25 0.125927 34.091505 30.397398 39.123507
30 1 6 -0.052124 33.597937 30.770597 37.053119
31 1 79 1.076745 32.845011 32.372303 37.346377
32 1 6 -0.138255 33.655398 30.267776 35.750517
33 1 25 0.125927 33.246893 30.840079 34.927614
34 1 6 -0.142215 34.242730 29.025830 35.500509
35 1 25 0.122111 34.278156 28.659867 34.482285
36 1 61 -0.647047 33.109944 32.842668 38.976571
37 1 61 -0.647047 33.563932 33.511275 36.284756
38 1 61 -0.647047 31.164861 32.255059 37.025926
39 1 5 -0.099102 34.730451 25.734372 36.977167
40 1 26 0.032456 35.299562 24.824835 36.682232
41 1 26 0.032456 34.830974 25.831179 38.079382
42 1 5 0.015778 33.244630 25.472793 36.591574
43 1 26 0.022425 33.197416 25.406452 35.481483
44 1 6 -0.035969 32.339141 26.583251 37.096412
45 1 6 -0.131756 32.226874 26.849657 38.474972
46 1 25 0.101496 32.793958 26.278060 39.197317
47 1 6 -0.139767 31.365827 27.845576 38.936674
48 1 25 0.14135 31.283300 28.027573 40.000410
49 1 6 -0.051918 30.605431 28.592626 38.033996
50 1 79 1.157597 29.480630 29.840366 38.659995
51 1 6 -0.139767 30.719869 28.347903 36.659993
52 1 25 0.14135 30.137153 28.918612 35.949561
53 1 6 -0.131756 31.581910 27.350229 36.193187
54 1 25 0.101496 31.648028 27.167334 35.128052
55 1 61 -0.691163 30.384519 30.967225 39.586877
56 1 61 -0.691163 28.706161 30.633009 37.348306
57 1 61 -0.691163 28.308588 29.059274 39.640288
58 1 5 -0.000586 32.800800 24.079833 37.144398
59 1 26 -0.010501 33.544671 23.338155 36.777901
60 1 26 -0.010501 32.857003 24.070685 38.253864
61 1 5 -0.032579 31.407016 23.561860 36.676754
62 1 26 0.137701 31.420824 23.543779 35.564390
63 1 6 -0.011695 30.264467 24.471661 37.152250
64 1 6 -0.095646 30.003028 24.669894 38.521953
65 1 25 0.111209 30.648538 24.230102 39.270784
66 1 6 -0.184492 28.856799 25.363999 38.940204
67 1 25 0.122822 28.649861 25.435010 40.000373
68 1 6 -0.022823 27.936700 25.865238 37.999982
69 1 5 0.164417 26.589887 26.422078 38.457179
70 1 6 -0.184492 28.255505 25.771004 36.634401
71 1 25 0.122822 27.577032 26.163970 35.888193
72 1 6 -0.095646 29.405590 25.082114 36.215421
73 1 25 0.111209 29.584226 24.965268 35.154077
74 1 26 -0.040461 26.507822 27.470070 38.098117
75 1 5 -0.072194 25.335961 25.611066 37.952629
76 1 26 0.004392 25.311078 25.653036 36.843339
77 1 26 0.004392 24.429747 26.143137 38.313769
78 1 5 0.060914 31.216869 22.053905 37.145270
79 1 26 -0.029666 32.088459 21.469859 36.777508
80 1 26 -0.029666 31.253465 22.017994 38.254867
81 1 5 -0.080441 29.931457 21.298845 36.636774
82 1 26 0.161633 29.972309 21.289599 35.524645
83 1 6 -0.033909 28.716612 22.025703 37.103086
84 1 6 -0.046469 28.453533 22.160043 38.478598
85 1 25 0.119472 29.121725 21.745661 39.221732
86 1 6 -0.154837 27.322701 22.835396 38.906867
87 1 25 0.088671 27.136627 22.932948 39.969267
88 1 6 -0.050237 26.443566 23.382519 37.966261
89 1 5 0.18978 25.233926 24.118496 38.433715
90 1 6 -0.154837 26.704289 23.244198 36.590594
91 1 25 0.088671 26.036555 23.659380 35.847558
92 1 6 -0.046469 27.835362 22.569084 36.162324
93 1 25 0.119472 28.022191 22.472263 35.100008
94 1 26 -0.043781 25.195902 24.131231 39.546017
95 1 5 -0.103886 23.949232 23.366716 37.932473
96 1 26 0.015134 23.906936 23.394596 36.822733
97 1 26 0.015134 23.075565 23.946372 38.302750
98 1 5 0.02372 29.828400 19.803345 37.113650
99 1 26 -0.032673 30.734734 19.273026 36.750221
100 1 26 -0.032673 29.855307 19.758252 38.222792
101 1 5 -0.070608 28.572895 18.989022 36.611012
102 1 26 0.047784 28.611476 18.971632 35.500383
103 1 6 -0.002343 27.221850 19.535512 37.075090
104 1 6 -0.14064 26.906693 19.626365 38.442242
105 1 25 0.145001 27.590728 19.237362 39.185682
106 1 6 -0.235918 25.756777 20.313966 38.866765
107 1 25 0.13736 25.588211 20.436569 39.929237
108 1 6 -0.03349 24.896943 20.929379 37.934067
109 1 5 0.334804 23.778566 21.867762 38.415545
110 1 6 -0.235918 25.144980 20.720753 36.563115
111 1 25 0.13736 24.498902 21.162707 35.815976
112 1 6 -0.14064 26.292198 20.029603 36.139576
113 1 25 0.145001 26.494566 19.959584 35.078312
114 1 26 -0.102684 23.775802 21.887273 39.528000
115 1 5 -0.093356 22.414746 21.324041 37.974225
116 1 26 -0.000797 22.270940 20.293446 38.363360
117 1 26 -0.000797 21.599927 21.962584 38.377415
118 1 26 -0.000556 39.977722 28.246036 35.511644
119 1 26 -0.040461 26.547392 26.443069 39.567644
120 1 26 0.047784 28.661309 17.939877 36.965555
121 1 26 -0.000797 22.329988 21.305743 36.867286
122 2 5 -0.051233 22.311543 20.824374 20.931101
123 2 26 -0.000556 22.852184 21.749146 20.637420
124 2 26 -0.000556 21.233058 20.964465 20.704787
125 2 5 0.030247 22.535306 20.523196 22.421771
126 2 26 0.028561 23.635371 20.432359 22.564546
127 2 6 0.077933 21.863903 19.201523 22.759538
128 2 6 -0.200132 20.468837 19.041198 22.648944
129 2 25 0.120991 19.840952 19.866523 22.340447
130 2 6 -0.123165 19.871769 17.808895 22.929395
131 2 25 0.137797 18.798826 17.701417 22.833575
132 2 6 -0.043312 20.655220 16.718437 23.320164
133 2 79 1.139467 19.876663 15.133337 23.640491
134 2 6 -0.123165 22.041576 16.868689 23.438209
135 2 25 0.137797 22.660427 16.032654 23.736231
136 2 6 -0.200132 22.642121 18.100414 23.160223
137 2 25 0.120991 23.717391 18.190337 23.249317
138 2 61 -0.686299 19.408656 14.454829 22.135098
139 2 61 -0.686299 20.991758 14.092583 24.429461
140 2 61 -0.686299 18.504784 15.387182 24.640337
141 2 5 -0.167947 22.050325 21.724372 23.277558
142 2 26 0.053829 22.546285 22.624948 22.851344
143 2 26 0.053829 20.955296 21.870342 23.155782
144 2 5 0.061335 22.431797 21.682703 24.784503
145 2 26 0.066322 23.537708 21.566007 24.837360
146 2 6 0.022005 21.765602 20.518632 25.496592
147 2 6 -0.142215 20.364319 20.416307 25.583372
148 2 25 0.122111 19.729331 21.176204 25.147233
149 2 6 -0.138255 19.772420 19.328621 26.233627
150 2 25 0.125927 18.693763 19.267966 26.288744
151 2 6 -0.052124 20.570820 18.329034 26.802995
152 2 79 1.076745 19.831911 16.920492 27.632682
153 2 6 -0.138255 21.962656 18.425474 26.723022
154 2 25 0.125927 22.587524 17.657346 27.160167
155 2 6 -0.142215 22.557183 19.510860 26.076210
156 2 25 0.122111 23.637365 19.560824 26.024495
157 2 61 -0.647047 18.132162 16.935721 27.388575
158 2 61 -0.647047 20.504940 15.488252 26.971725
159 2 61 -0.647047 20.194190 17.017780 29.305591
160 2 5 -0.099102 22.100917 23.063557 25.426399
161 2 26 0.032456 22.641481 23.819176 24.814058
162 2 26 0.032456 21.017343 23.288836 25.329078
163 2 5 0.015778 22.565180 23.270494 26.898270
164 2 26 0.022425 23.646696 23.011305 26.943843
165 2 6 -0.035969 21.769492 22.400217 27.856072
166 2 6 -0.131756 20.374826 22.554375 27.979147
167 2 25 0.101496 19.843872 23.284947 27.383796
168 2 6 -0.139767 19.653294 21.778781 28.887039
169 2 25 0.14135 18.583967 21.920052 28.976762
170 2 6 -0.051918 20.307891 20.836973 29.684294
171 2 79 1.157597 19.359034 19.881346 30.867660
172 2 6 -0.139767 21.691833 20.663336 29.560102
173 2 25 0.14135 22.211856 19.937833 30.171005
174 2 6 -0.131756 22.418747 21.439067 28.651138
175 2 25 0.101496 23.489884 21.299017 28.577764
176 2 61 -0.691163 18.131733 19.033735 30.018411
177 2 61 -0.691163 20.391601 18.776994 31.681802
178 2 61 -0.691163 18.664992 20.969307 31.998768
179 2 5 -0.000586 22.449388 24.783514 27.272836
180 2 26 -0.010501 23.007075 25.349654 26.494234
181 2 26 -0.010501 21.390419 25.114197 27.214605
182 2 5 -0.032579 23.065869 25.206995 28.640402
183 2 26 0.137701 24.134669 24.898176 28.627381
184 2 6 -0.011695 22.359934 24.530933 29.825242
185 2 6 -0.095646 20.995579 24.754630 30.094000
186 2 25 0.111209 20.399767 25.363376 29.426704
187 2 6 -0.184492 20.407477 24.268002 31.272085
188 2 25 0.122822 19.375598 24.520085 31.480664
189 2 6 -0.022823 21.171873 23.557497 32.216923
190 2 5 0.164417 20.589225 23.222801 33.588603
191 2 6 -0.184492 22.501151 23.232977 31.895932
192 2 25 0.122822 23.108565 22.671273 32.593865
193 2 6 -0.095646 23.088378 23.714230 30.714252
194 2 25 0.111209 24.135141 23.506911 30.531707
195 2 26 -0.040461 20.627317 22.120691 33.722200
196 2 5 -0.072194 21.324853 23.908781 34.802245
197 2 26 0.004392 22.373658 23.545329 34.830792
198 2 26 0.004392 20.835638 23.548907 35.732785
199 2 5 0.060914 23.061049 26.793242 28.756105
200 2 26 -0.029666 23.572232 27.202450 27.857623
201 2 26 -0.029666 22.010029 27.150446 28.716153
202 2 5 -0.080441 23.784501 27.426110 30.003929
203 2 26 0.161633 24.850146 27.107650 29.964327
204 2 6 -0.033909 23.141747 26.925490 31.252073
205 2 6 -0.046469 21.790535 27.211988 31.519346
206 2 25 0.119472 21.192451 27.793730 30.830642
207 2 6 -0.154837 21.198134 26.745476 32.681122
208 2 25 0.088671 20.156097 26.971880 32.870153
209 2 6 -0.050237 21.948961 25.989106 33.587284
210 2 5 0.18978 21.302383 25.479866 34.830672
211 2 6 -0.154837 23.301516 25.706476 33.322171
212 2 25 0.088671 23.899266 25.123977 34.010456
213 2 6 -0.046469 23.893844 26.172748 32.160165
214 2 25 0.119472 24.935577 25.945634 31.970416
215 2 26 -0.043781 20.235516 25.794912 34.867620
216 2 5 -0.103886 22.017930 26.111689 36.077928
217 2 26 0.015134 23.071508 25.762382 36.123182
218 2 26 0.015134 21.505652 25.707509 36.978266
219 2 5 0.02372 23.766927 28.998810 30.033241
220 2 26 -0.032673 24.257817 29.356335 29.102669
221 2 26 -0.032673 22.719150 29.365106 30.002520
222 2 5 -0.070608 24.501714 29.688585 31.248295
223 2 26 0.047784 25.568334 29.378449 31.210562
224 2 6 -0.002343 23.915565 29.365987 32.623687
225 2 6 -0.14064 22.585727 29.694025 32.940867
226 2 25 0.145001 21.979729 30.250871 32.237577
227 2 6 -0.235918 21.993574 29.215616 34.122308
228 2 25 0.13736 20.943921 29.417293 34.295073
229 2 6 -0.03349 22.716631 28.395430 35.012509
230 2 5 0.334804 21.996310 27.692681 36.174591
231 2 6 -0.235918 24.085388 28.181923 34.756632
232 2 25 0.13736 24.678958 27.571635 35.424599
233 2 6 -0.14064 24.677672 28.664136 33.577711
234 2 25 0.145001 25.710366 28.411000 33.373747
235 2 26 -0.102684 20.926863 27.999641 36.176651
236 2 5 -0.093356 22.594760 28.147046 37.510934
237 2 26 -0.000797 22.525727 29.251968 37.603744
238 2 26 -0.000797 22.033042 27.693483 38.355317
239 2 26 -0.000556 22.700790 19.989021 20.310008
240 2 26 -0.040461 19.521759 23.529635 33.630422
241 2 26 0.047784 24.468199 30.790176 31.108308
242 2 26 -0.000797 23.659702 27.844659 37.596344
243 3 5 -0.051233 37.923707 14.880523 8.788678
244 3 26 -0.000556 38.727180 14.306128 9.296857
245 3 26 -0.000556 38.328351 15.878154 8.514872
246 3 5 0.030247 36.694999 15.007635 9.703552
247 3 26 0.028561 36.378482 13.970431 9.954160
248 3 6 0.077933 35.585837 15.710851 8.937434
249 3 6 -0.200132 35.736164 17.036814 8.486471
250 3 25 0.120991 36.640699 17.592146 8.696213
251 3 6 -0.123165 34.720406 17.656245 7.752811
252 3 25 0.137797 34.854827 18.673850 7.408789
253 3 6 -0.043312 33.542807 16.963382 7.454827
254 3 79 1.139467 32.264117 17.760888 6.480024
255 3 6 -0.123165 33.381353 15.647418 7.902783
256 3 25 0.137797 32.476960 15.098164 7.676637
257 3 6 -0.200132 34.394579 15.025176 8.638491
258 3 25 0.120991 34.251152 14.003345 8.966392
259 3 61 -0.686299 32.807793 17.846360 4.854379
260 3 61 -0.686299 30.816689 16.840647 6.564812
261 3 61 -0.686299 31.994737 19.334827 7.109572
262 3 5 -0.167947 37.099220 15.706472 11.029686
263 3 26 0.053829 37.977502 15.143752 11.417807
264 3 26 0.053829 37.442357 16.744924 10.831953
265 3 5 0.061335 36.030726 15.689813 12.159370
266 3 26 0.066322 35.752817 14.625192 12.329073
267 3 6 0.022005 34.793843 16.479545 11.768999
268 3 6 -0.142215 34.859408 17.859291 11.497707
269 3 25 0.122111 35.799553 18.390043 11.570513
270 3 6 -0.138255 33.709218 18.563931 11.127866
271 3 25 0.125927 33.780794 19.623650 10.922711
272 3 6 -0.052124 32.480582 17.900575 11.021984
273 3 79 1.076745 30.995276 18.783348 10.539350
274 3 6 -0.138255 32.407531 16.531485 11.292459
275 3 25 0.125927 31.462036 16.010623 11.212966
276 3 6 -0.142215 33.553391 15.825052 11.663743
277 3 25 0.122111 33.471421 14.764420 11.864502
278 3 61 -0.647047 31.406538 20.377717 10.051686
279 3 61 -0.647047 30.265294 17.942667 9.234924
280 3 61 -0.647047 29.924617 18.827440 11.877663
281 3 5 -0.099102 36.686465 16.192448 13.480595
282 3 26 0.032456 37.572009 15.539409 13.646376
283 3 26 0.032456 37.071052 17.227251 13.355578
284 3 5 0.015778 35.814188 16.092483 14.766639
285 3 26 0.022425 35.438424 15.046757 14.831367
286 3 6 -0.035969 34.653957 17.072278 14.724777
287 3 6 -0.131756 34.885809 18.459709 14.652067
288 3 25 0.101496 35.893306 18.851246 14.610354
289 3 6 -0.139767 33.818129 19.357753 14.651508
290 3 25 0.14135 34.016100 20.420939 14.607817
291 3 6 -0.051918 32.504131 18.889044 14.721057
292 3 79 1.157597 31.154844 20.068932 14.755648
293 3 6 -0.139767 32.260028 17.511348 14.777930
294 3 25 0.14135 31.247703 17.134203 14.832155
295 3 6 -0.131756 33.327748 16.607826 14.778828
296 3 25 0.101496 33.119760 15.546756 14.835450
297 3 61 -0.691163 31.251918 21.043014 13.345797
298 3 61 -0.691163 29.655333 19.233426 14.800478
299 3 61 -0.691163 31.324707 21.033282 16.164880
300 3 5 -0.000586 36.712323 16.326042 16.024313
301 3 26 -0.010501 37.562913 15.613098 15.947137
302 3 26 -0.010501 37.146371 17.348432 16.002460
303 3 5 -0.032579 36.047752 16.058313 17.408613
304 3 26 0.137701 35.675086 15.010066 17.395611
305 3 6 -0.011695 34.871205 17.008586 17.676886
306 3 6 -0.095646 35.055449 18.402384 17.761247
307 3 25 0.111209 36.028400 18.837352 17.574121
308 3 6 -0.184492 34.007634 19.240687 18.173417
309 3 25 0.122822 34.205216 20.297885 18.296377
310 3 6 -0.022823 32.753942 18.705072 18.524434
311 3 5 0.164417 31.692097 19.586966 19.178462
312 3 6 -0.184492 32.533707 17.330866 18.328518
313 3 25 0.122822 31.574133 16.892861 18.571303
314 3 6 -0.095646 33.579992 16.492450 17.910005
315 3 25 0.111209 33.396632 15.427893 17.838492
316 3 26 -0.040461 30.779175 19.557498 18.546282
317 3 5 -0.072194 31.306503 19.172918 20.649694
318 3 26 0.004392 30.868874 18.152702 20.626373
319 3 26 0.004392 30.500591 19.859592 20.986934
320 3 5 0.060914 37.153624 16.124674 18.549769
321 3 26 -0.029666 37.972224 15.425276 18.272706
322 3 26 -0.029666 37.594359 17.144221 18.560287
323 3 5 -0.080441 36.707912 15.729353 20.007861
324 3 26 0.161633 36.345864 14.677701 19.968683
325 3 6 -0.033909 35.611695 16.636953 20.450790
326 3 6 -0.046469 35.841793 18.018995 20.578488
327 3 25 0.119472 36.808937 18.450543 20.357492
328 3 6 -0.154837 34.820202 18.858070 20.991526
329 3 25 0.088671 35.012866 19.919977 21.081344
330 3 6 -0.050237 33.559535 18.325535 21.281507
331 3 5 0.18978 32.460546 19.235544 21.714534
332 3 6 -0.154837 33.330716 16.942782 21.158200
333 3 25 0.088671 32.363329 16.511443 21.378327
334 3 6 -0.046469 34.352289 16.103718 20.744824
335 3 25 0.119472 34.159608 15.041921 20.653956
336 3 26 -0.043781 32.821958 20.287683 21.749290
337 3 5 -0.103886 32.015547 18.847748 23.170022
338 3 26 0.015134 31.576867 17.827136 23.169077
339 3 26 0.015134 31.199632 19.548756 23.451569
340 3 5 0.02372 37.861887 15.787465 21.075342
341 3 26 -0.032673 38.665834 15.099106 20.736830
342 3 26 -0.032673 38.302907 16.806233 21.099191
343 3 5 -0.070608 37.478315 15.374649 22.549966
344 3 26 0.047784 37.121105 14.322671 22.517874
345 3 6 -0.002343 36.423548 16.261082 23.214079
346 3 6 -0.14064 36.648968 17.635011 23.409492
347 3 25 0.145001 37.608222 18.070273 23.159875
348 3 6 -0.235918 35.605654 18.478219 23.828798
349 3 25 0.13736 35.791606 19.543158 23.888955
350 3 6 -0.03349 34.311833 17.967522 24.059429
351 3 5 0.334804 33.132311 18.925834 24.290775
352 3 6 -0.235918 34.126144 16.572701 23.991981
353 3 25 0.13736 33.151925 16.140036 24.178135
354 3 6 -0.14064 35.170627 15.730042 23.577054
355 3 25 0.145001 34.969135 14.673116 23.456869
356 3 26 -0.102684 33.510839 19.972088 24.294520
357 3 5 -0.093356 32.513659 18.668941 25.669787
358 3 26 -0.000797 33.285294 18.781854 26.461028
359 3 26 -0.000797 31.704503 19.403737 25.868711
360 3 26 -0.000556 37.652166 14.337917 7.857588
361 3 26 -0.040461 32.044302 20.640657 19.211131
362 3 26 0.047784 38.394374 15.398155 23.178065
363 3 26 -0.000797 32.082088 17.647763 25.731231
364 4 5 -0.051233 20.652101 1.832137 7.153621
365 4 26 -0.000556 20.009339 2.035251 8.036427
366 4 26 -0.000556 21.577268 1.327509 7.504891
367 4 5 0.030247 20.975385 3.140143 6.413701
368 4 26 0.028561 19.998975 3.592644 6.129717
369 4 6 0.077933 21.770533 2.809234 5.160734
370 4 6 -0.200132 23.043551 2.211450 5.239632
371 4 25 0.120991 23.493041 1.994321 6.199519
372 4 6 -0.123165 23.745781 1.881434 4.077015
373 4 25 0.137797 24.720510 1.417060 4.155754
374 4 6 -0.043312 23.189192 2.138454 2.820137
375 4 79 1.139467 24.088200 1.674479 1.337633
376 4 6 -0.123165 21.927304 2.736915 2.730822
377 4 25 0.137797 21.482996 2.938410 1.765038
378 4 6 -0.200132 21.222702 3.070067 3.891694
379 4 25 0.120991 20.244086 3.523649 3.797881
380 4 61 -0.686299 24.024320 -0.034038 1.187634
381 4 61 -0.686299 23.358712 2.409339 -0.032370
382 4 61 -0.686299 25.712941 2.206225 1.491390
383 4 5 -0.167947 21.684789 4.127027 7.379727
384 4 26 0.053829 21.038354 4.189811 8.283526
385 4 26 0.053829 22.661811 3.712276 7.709324
386 4 5 0.061335 21.856627 5.582077 6.858723
387 4 26 0.066322 20.844225 5.948018 6.574855
388 4 6 0.022005 22.772120 5.636757 5.648422
389 4 6 -0.142215 24.117905 5.231493 5.727296
390 4 25 0.122111 24.531773 4.877483 6.662314
391 4 6 -0.138255 24.939413 5.278927 4.596317
392 4 25 0.125927 25.970596 4.962248 4.677516
393 4 6 -0.052124 24.428001 5.728870 3.372877
394 4 79 1.076745 25.461681 5.788107 1.907832
395 4 6 -0.138255 23.093658 6.135319 3.287845
396 4 25 0.125927 22.689916 6.484379 2.346184
397 4 6 -0.142215 22.270979 6.091079 4.415292
398 4 25 0.122111 21.239951 6.407916 4.322773
399 4 61 -0.647047 26.966731 5.028502 2.234625
400 4 61 -0.647047 24.652916 4.962797 0.640588
401 4 61 -0.647047 25.704470 7.428981 1.474331
402 4 5 -0.099102 22.340339 6.484163 8.033683
403 4 26 0.032456 21.592333 6.349396 8.846367
404 4 26 0.032456 23.312289 6.119932 8.429921
405 4 5 0.015778 22.413288 8.012883 7.746524
406 4 26 0.022425 21.426399 8.319557 7.333084
407 4 6 -0.035969 23.525209 8.337948 6.763746
408 4 6 -0.131756 24.868094 8.048075 7.074614
409 4 25 0.101496 25.129938 7.576106 8.012043
410 4 6 -0.139767 25.889662 8.382264 6.185152
411 4 25 0.14135 26.916815 8.163140 6.446699
412 4 6 -0.051918 25.590490 9.007671 4.972520
413 4 79 1.157597 26.927854 9.457993 3.866819
414 4 6 -0.139767 24.257967 9.286957 4.645032
415 4 25 0.14135 24.011611 9.770897 3.709568
416 4 6 -0.131756 23.230982 8.953585 5.534156
417 4 25 0.101496 22.207809 9.188273 5.268877
418 4 61 -0.691163 27.810539 8.037934 3.479216
419 4 61 -0.691163 26.286759 10.168747 2.441183
420 4 61 -0.691163 27.933454 10.587810 4.677399
421 4 5 -0.000586 22.597265 8.787084 9.091777
422 4 26 -0.010501 21.781993 8.449635 9.769428
423 4 26 -0.010501 23.555997 8.498895 9.573374
424 4 5 -0.032579 22.483285 10.339871 9.017735
425 4 26 0.137701 21.489613 10.574492 8.575649
426 4 6 -0.011695 23.583526 10.957737 8.141971
427 4 6 -0.095646 24.946471 10.829612 8.473175
428 4 25 0.111209 25.248316 10.234146 9.324737
429 4 6 -0.184492 25.927103 11.539046 7.762106
430 4 25 0.122822 26.956736 11.473021 8.089706
431 4 6 -0.022823 25.568320 12.404446 6.711298
432 4 5 0.164417 26.606026 13.336392 6.088681
433 4 6 -0.184492 24.223625 12.442872 6.304301
434 4 25 0.122822 23.919917 13.084253 5.487008
435 4 6 -0.095646 23.242753 11.728251 7.011416
436 4 25 0.111209 22.206657 11.836419 6.716761
437 4 26 -0.040461 26.657550 13.120487 5.000253
438 4 5 -0.072194 26.317023 14.872796 6.290127
439 4 26 0.004392 25.358618 15.120883 5.787317
440 4 26 0.004392 27.113809 15.432948 5.755237
441 4 5 0.060914 22.470107 10.941694 10.489885
442 4 26 -0.029666 21.662167 10.432781 11.059332
443 4 26 -0.029666 23.426823 10.680742 10.990318
444 4 5 -0.080441 22.206412 12.487962 10.633023
445 4 26 0.161633 21.206743 12.694797 10.189776
446 4 6 -0.033909 23.263230 13.237972 9.896657
447 4 6 -0.046469 24.611052 13.132543 10.285955
448 4 25 0.119472 24.908521 12.508720 11.118299
449 4 6 -0.154837 25.589261 13.832376 9.599196
450 4 25 0.088671 26.622503 13.737536 9.909437
451 4 6 -0.050237 25.231327 14.644421 8.517794
452 4 5 0.18978 26.290378 15.386237 7.775148
453 4 6 -0.154837 23.882863 14.753428 8.131360
454 4 25 0.088671 23.585587 15.376532 7.298465
455 4 6 -0.046469 22.904650 14.053292 8.817967
456 4 25 0.119472 21.871467 14.147169 8.507300
457 4 26 -0.043781 27.290386 15.175564 8.216084
458 4 5 -0.103886 26.033921 16.929128 7.918587
459 4 26 0.015134 25.076377 17.198125 7.423775
460 4 26 0.015134 26.843351 17.440931 7.353538
461 4 5 0.02372 22.175433 13.004276 12.118625
462 4 26 -0.032673 21.377155 12.443894 12.651056
463 4 26 -0.032673 23.132012 12.755475 12.624600
464 4 5 -0.070608 21.887572 14.542868 12.323389
465 4 26 0.047784 20.887340 14.754308 11.887367
466 4 6 -0.002343 22.929411 15.480816 11.711694
467 4 6 -0.14064 24.273167 15.439916 12.123188
468 4 25 0.145001 24.573852 14.792675 12.937188
469 4 6 -0.235918 25.258463 16.153636 11.419542
470 4 25 0.13736 26.294048 16.034029 11.712031
471 4 6 -0.03349 24.923277 16.922384 10.286117
472 4 5 0.334804 26.029998 17.506892 9.393552
473 4 6 -0.235918 23.560344 17.066639 9.960298
474 4 25 0.13736 23.260890 17.661496 9.107403
475 4 6 -0.14064 22.575668 16.356410 10.666819
476 4 25 0.145001 21.546926 16.426486 10.336796
477 4 26 -0.102684 27.020508 17.261689 9.837073
478 4 5 -0.093356 25.920836 19.035739 9.360223
479 4 26 -0.000797 25.977406 19.444741 10.391605
480 4 26 -0.000797 26.758772 19.466118 8.771269
481 4 26 -0.000556 20.101026 1.139358 6.481715
482 4 26 -0.040461 27.608601 13.127286 6.520536
483 4 26 0.047784 21.829548 14.754374 13.412482
484 4 26 -0.000797 24.964986 19.359037 8.896904
485 5 5 -0.051233 31.464586 25.297944 4.460911
486 5 26 -0.000556 30.893891 26.193143 4.787513
487 5 26 -0.000556 30.820182 24.403912 4.600289
488 5 5 0.030247 32.771864 25.174740 5.260110
489 5 26 0.028561 33.335842 26.119392 5.091753
490 5 6 0.077933 33.567968 23.998885 4.716722
491 5 6 -0.200132 33.070753 22.683041 4.790730
492 5 25 0.120991 32.116500 22.478842 5.257926
493 5 6 -0.123165 33.799734 21.617830 4.254422
494 5 25 0.137797 33.400121 20.613527 4.314634
495 5 6 -0.043312 35.031657 21.848028 3.633965
496 5 79 1.139467 35.937234 20.473915 2.917690
497 5 6 -0.123165 35.537006 23.150961 3.559919
498 5 25 0.137797 36.487162 23.344214 3.079706
499 5 6 -0.200132 34.811391 24.218763 4.096910
500 5 25 0.120991 35.217937 25.219241 4.019489
501 5 61 -0.686299 35.129362 19.993048 1.481821
502 5 61 -0.686299 37.539615 20.969427 2.549014
503 5 61 -0.686299 35.969190 19.186129 4.052046
504 5 5 -0.167947 32.452298 25.084895 6.776753
505 5 26 0.053829 31.787406 25.948529 7.001978
506 5 26 0.053829 31.871045 24.163498 6.996750
507 5 5 0.061335 33.670478 25.204544 7.735848
508 5 26 0.066322 34.189769 26.156955 7.485449
509 5 6 0.022005 34.632968 24.042826 7.562728
510 5 6 -0.142215 34.235540 22.716447 7.816431
511 5 25 0.122111 33.229732 22.498003 8.150350
512 5 6 -0.138255 35.135700 21.660879 7.638315
513 5 25 0.125927 34.810527 20.648616 7.837820
514 5 6 -0.052124 36.442036 21.915303 7.202938
515 5 79 1.076745 37.609349 20.575176 6.958394
516 5 6 -0.138255 36.844308 23.229832 6.951755
517 5 25 0.125927 37.852102 23.435708 6.614794
518 5 6 -0.142215 35.948934 24.286406 7.130220
519 5 25 0.122111 36.283599 25.295389 6.925486
520 5 61 -0.647047 36.798225 19.069801 7.116162
521 5 61 -0.647047 38.276269 20.718162 5.384890
522 5 61 -0.647047 38.850973 20.708624 8.133085
523 5 5 -0.099102 33.148887 25.355183 9.196505
524 5 26 0.032456 32.459608 26.228593 9.183079
525 5 26 0.032456 32.540339 24.471869 9.485956
526 5 5 0.015778 34.221004 25.652475 10.285977
527 5 26 0.022425 34.813482 26.527865 9.937273
528 5 6 -0.035969 35.126676 24.453803 10.511436
529 5 6 -0.131756 34.599825 23.228907 10.965377
530 5 25 0.101496 33.539613 23.115839 11.147746
531 5 6 -0.139767 35.440215 22.141762 11.206800
532 5 25 0.14135 35.018886 21.212298 11.567417
533 5 6 -0.051918 36.816630 22.256193 10.998231
534 5 79 1.157597 37.875001 20.853230 11.352421
535 5 6 -0.139767 37.350655 23.463859 10.532151
536 5 25 0.14135 38.414543 23.566798 10.366243
537 5 6 -0.131756 36.511433 24.556100 10.289059
538 5 25 0.101496 36.944088 25.485402 9.940432
539 5 61 -0.691163 37.346223 19.523863 10.404205
540 5 61 -0.691163 39.503250 21.245248 10.973288
541 5 61 -0.691163 37.739144 20.490386 13.024141
542 5 5 -0.000586 33.511900 26.087902 11.609047
543 5 26 -0.010501 32.829166 26.925869 11.345542
544 5 26 -0.010501 32.875156 25.262811 11.993674
545 5 5 -0.032579 34.435122 26.623083 12.745209
546 5 26 0.137701 35.012431 27.475655 12.323654
547 5 6 -0.011695 35.413443 25.550384 13.246664
548 5 6 -0.095646 34.956831 24.359924 13.845032
549 5 25 0.111209 33.897013 24.150193 13.905415
550 5 6 -0.184492 35.858123 23.469571 14.449598
551 5 25 0.122822 35.465682 22.600964 14.962761
552 5 6 -0.022823 37.236497 23.753859 14.482858
553 5 5 0.164417 38.181707 22.900935 15.326720
554 5 6 -0.184492 37.705440 24.880212 13.785184
555 5 25 0.122822 38.762104 25.114646 13.776434
556 5 6 -0.095646 36.804610 25.768164 13.174567
557 5 25 0.111209 37.193303 26.664210 12.707624
558 5 26 -0.040461 38.964483 22.484833 14.657342
559 5 5 -0.072194 38.880977 23.668894 16.512429
560 5 26 0.004392 39.513328 24.476051 16.086361
561 5 26 0.004392 39.568696 22.952784 17.011402
562 5 5 0.060914 33.541849 27.224342 13.915740
563 5 26 -0.029666 32.854414 27.975280 13.469026
564 5 26 -0.029666 32.904551 26.414317 14.329920
565 5 5 -0.080441 34.292983 27.955626 15.091321
566 5 26 0.161633 34.856492 28.805269 14.645059
567 5 6 -0.033909 35.231402 27.000293 15.745786
568 5 6 -0.046469 34.740149 25.846608 16.383730
569 5 25 0.119472 33.681107 25.627221 16.410965
570 5 6 -0.154837 35.616143 24.962515 16.991441
571 5 25 0.088671 35.222032 24.077340 17.475151
572 5 6 -0.050237 36.990611 25.221898 16.968594
573 5 5 0.18978 37.929575 24.260373 17.614520
574 5 6 -0.154837 37.481498 26.378017 16.334569
575 5 25 0.088671 38.540587 26.596862 16.306584
576 5 6 -0.046469 36.605465 27.261982 15.726548
577 5 25 0.119472 36.999396 28.146703 15.241902
578 5 26 -0.043781 37.365854 23.408652 18.056803
579 5 5 -0.103886 38.678016 24.984139 18.790469
580 5 26 0.015134 39.315123 25.798843 18.384953
581 5 26 0.015134 39.363259 24.233917 19.242142
582 5 5 0.02372 33.343027 28.552067 16.194223
583 5 26 -0.032673 32.657348 29.268782 15.693302
584 5 26 -0.032673 32.707799 27.747262 16.620521
585 5 5 -0.070608 34.040644 29.320551 17.383686
586 5 26 0.047784 34.600716 30.174081 16.944266
587 5 6 -0.002343 34.979728 28.468666 18.239114
588 5 6 -0.14064 34.505762 27.343716 18.936629
589 5 25 0.145001 33.448866 27.109416 18.938014
590 5 6 -0.235918 35.402852 26.452434 19.549953
591 5 25 0.13736 35.009724 25.552917 20.006693
592 5 6 -0.03349 36.794983 26.663783 19.477314
593 5 5 0.334804 37.768443 25.570726 19.947162
594 5 6 -0.235918 37.255968 27.860439 18.894166
595 5 25 0.13736 38.316366 28.067433 18.833617
596 5 6 -0.14064 36.358353 28.752980 18.285199
597 5 25 0.145001 36.754961 29.621270 17.774404
598 5 26 -0.102684 37.184389 24.718372 20.359858
599 5 5 -0.093356 38.644263 26.105989 21.085948
600 5 26 -0.000797 38.006158 26.463379 21.922205
601 5 26 -0.000797 39.302379 25.299284 21.473685
602 5 26 -0.000556 31.688047 25.411308 3.378183
603 5 26 -0.040461 37.626194 22.044769 15.766905
604 5 26 0.047784 33.255430 29.741505 18.047358
605 5 26 -0.000797 39.284839 26.943801 20.738719
606 6 5 -0.051233 1.384270 18.797798 14.941986
607 6 26 -0.000556 1.419858 19.477360 15.819867
608 6 26 -0.000556 0.318925 18.613528 14.686917
609 6 5 0.030247 2.120323 17.484148 15.250894