LAMMPS Description

5401  atoms
4318  bonds
5049  angles
6120  dihedrals
1122  impropers

90  atom types
840  bond types
4614  angle types
985  dihedral types
38  improper types

-0.5 40.5 xlo xhi
-0.5 40.5 ylo yhi
-0.5 40.5 zlo zhi

Masses

1 12.01
2 12.01
3 12.01
4 12.01
5 12.01
6 12.01
7 12.01
8 12.01
9 12.01
10 12.01
11 12.01
12 12.01
13 12.01
14 12.01
15 12.01
16 12.01
17 12.01
18 12.01
19 12.01
20 1.008
21 1.008
22 1.008
23 1.008
24 1.008
25 1.008
26 1.008
27 1.008
28 1.008
29 1.008
30 1.008
31 1.008
32 1.008
33 19.00
34 35.45
35 79.90
36 126.9
37 14.01
38 14.01
39 14.01
40 14.01
41 14.01
42 14.01
43 14.01
44 14.01
45 14.01
46 14.01
47 14.01
48 14.01
49 14.01
50 14.01
51 14.01
52 14.01
53 14.01
54 14.01
55 14.01
56 14.01
57 14.01
58 14.01
59 14.01
60 14.01
61 16.00
62 16.00
63 16.00
64 16.00
65 30.97
66 30.97
67 30.97
68 30.97
69 30.97
70 30.97
71 30.97
72 30.97
73 30.97
74 30.97
75 30.97
76 32.06
77 32.06
78 32.06
79 32.06
80 32.06
81 32.06
82 32.06
83 32.06
84 6.94
85 39.10
86 22.99
87 35.45
88 19.00
89 79.90
90 126.9

Atoms

1 1 5 -0.051233 1.933709 30.111527 15.597934
2 1 26 -0.000556 2.094420 31.210305 15.573381
3 1 26 -0.000556 2.110233 29.756636 16.635656
4 1 5 0.030247 2.870048 29.410480 14.600599
5 1 26 0.028561 2.650858 29.846852 13.600440
6 1 6 0.077933 2.550639 27.924010 14.592263
7 1 6 -0.200132 2.726574 27.132210 15.743891
8 1 25 0.120991 3.115323 27.563882 16.656635
9 1 6 -0.123165 2.394485 25.774560 15.729078
10 1 25 0.137797 2.530411 25.181919 16.624757
11 1 6 -0.043312 1.879399 25.187253 14.569186
12 1 79 1.139467 1.423333 23.451389 14.578412
13 1 6 -0.123165 1.705751 25.963974 13.418081
14 1 25 0.137797 1.305000 25.523606 12.514630
15 1 6 -0.200132 2.038554 27.321991 13.428667
16 1 25 0.120991 1.886773 27.905031 12.529081
17 1 61 -0.686299 -0.021175 23.284064 15.490010
18 1 61 -0.686299 1.163641 22.915238 12.967766
19 1 61 -0.686299 2.697238 22.552497 15.296283
20 1 5 -0.167947 4.346634 29.745767 14.943639
21 1 26 0.053829 4.401317 30.855223 15.012845
22 1 26 0.053829 4.612391 29.345902 15.945989
23 1 5 0.061335 5.403665 29.317395 13.886603
24 1 26 0.066322 5.097987 29.772256 12.917524
25 1 6 0.022005 5.465293 27.807251 13.739584
26 1 6 -0.142215 5.830103 26.979190 14.817927
27 1 25 0.122111 6.083608 27.407275 15.778838
28 1 6 -0.138255 5.868127 25.589689 14.662765
29 1 25 0.125927 6.150142 24.970716 15.503930
30 1 6 -0.052124 5.540620 25.009443 13.431159
31 1 79 1.076745 5.573183 23.229007 13.213568
32 1 6 -0.138255 5.180169 25.825505 12.355511
33 1 25 0.125927 4.925322 25.385561 11.399959
34 1 6 -0.142215 5.142857 27.213240 12.506155
35 1 25 0.122111 4.857019 27.823478 11.658884
36 1 61 -0.647047 5.822153 22.468263 14.732861
37 1 61 -0.647047 4.069402 22.736567 12.552291
38 1 61 -0.647047 6.843997 22.831999 12.133404
39 1 5 -0.099102 6.776489 29.952768 14.260668
40 1 26 0.032456 6.591770 31.047161 14.340116
41 1 26 0.032456 7.103671 29.609822 15.265504
42 1 5 0.015778 7.926870 29.770614 13.227125
43 1 26 0.022425 7.540440 30.106875 12.238929
44 1 6 -0.035969 8.380853 28.322641 13.155281
45 1 6 -0.131756 8.918587 27.679911 14.287422
46 1 25 0.101496 9.004583 28.201178 15.231337
47 1 6 -0.139767 9.368752 26.361826 14.207245
48 1 25 0.14135 9.790576 25.888499 15.084453
49 1 6 -0.051918 9.288726 25.662901 13.000508
50 1 79 1.157597 9.909140 23.982893 12.919469
51 1 6 -0.139767 8.741731 26.285693 11.871882
52 1 25 0.14135 8.673550 25.756617 10.930919
53 1 6 -0.131756 8.289443 27.607051 11.948199
54 1 25 0.101496 7.880630 28.075821 11.061938
55 1 61 -0.691163 9.073468 23.040911 14.085770
56 1 61 -0.691163 9.653782 23.346062 11.345349
57 1 61 -0.691163 11.589323 24.016756 13.266738
58 1 5 -0.000586 9.111620 30.721849 13.593813
59 1 26 -0.010501 8.684604 31.745293 13.683096
60 1 26 -0.010501 9.523207 30.456759 14.591049
61 1 5 -0.032579 10.265366 30.824016 12.550715
62 1 26 0.137701 9.808076 31.138812 11.586526
63 1 6 -0.011695 10.984734 29.481356 12.353169
64 1 6 -0.095646 11.668269 28.850133 13.410558
65 1 25 0.111209 11.645031 29.273315 14.406160
66 1 6 -0.184492 12.460490 27.715214 13.176249
67 1 25 0.122822 13.028876 27.299139 13.998224
68 1 6 -0.022823 12.599828 27.191390 11.877006
69 1 5 0.164417 13.628570 26.099506 11.589803
70 1 6 -0.184492 11.826884 27.748071 10.843569
71 1 25 0.122822 11.897943 27.354777 9.837664
72 1 6 -0.095646 11.029012 28.879842 11.078731
73 1 25 0.111209 10.502719 29.327545 10.245308
74 1 26 -0.040461 13.094897 25.223495 11.163490
75 1 5 -0.072194 14.781499 26.523727 10.602163
76 1 26 0.004392 14.330610 26.770207 9.617860
77 1 26 0.004392 15.427485 25.633415 10.444708
78 1 5 0.060914 11.261452 31.989527 12.973785
79 1 26 -0.029666 10.663075 32.916217 13.112418
80 1 26 -0.029666 11.700429 31.741611 13.963569
81 1 5 -0.080441 12.413896 32.353488 11.963649
82 1 26 0.161633 11.931138 32.669728 11.012059
83 1 6 -0.033909 13.266741 31.152460 11.736048
84 1 6 -0.046469 13.981591 30.576571 12.802177
85 1 25 0.119472 13.926804 30.986337 13.801943
86 1 6 -0.154837 14.773628 29.461243 12.585339
87 1 25 0.088671 15.314674 29.028007 13.417451
88 1 6 -0.050237 14.860034 28.910582 11.302268
89 1 5 0.18978 15.705218 27.702872 11.077535
90 1 6 -0.154837 14.148736 29.489268 10.235148
91 1 25 0.088671 14.202849 29.078917 9.235633
92 1 6 -0.046469 13.356402 30.604465 10.452085
93 1 25 0.119472 12.814467 31.037285 9.620359
94 1 26 -0.043781 16.184264 27.384439 12.030393
95 1 5 -0.103886 16.858627 28.062220 10.073854
96 1 26 0.015134 16.427647 28.315401 9.081763
97 1 26 0.015134 17.461599 27.138088 9.936726
98 1 5 0.02372 13.337985 33.536023 12.435053
99 1 26 -0.032673 12.690210 34.425406 12.590444
100 1 26 -0.032673 13.788536 33.293096 13.420419
101 1 5 -0.070608 14.494395 33.962163 11.448555
102 1 26 0.047784 14.017597 34.284535 10.497753
103 1 6 -0.002343 15.533824 32.876288 11.166051
104 1 6 -0.14064 16.305937 32.323507 12.202853
105 1 25 0.145001 16.227563 32.715912 13.208738
106 1 6 -0.235918 17.106494 31.191490 11.972705
107 1 25 0.13736 17.622661 30.741832 12.811556
108 1 6 -0.03349 17.151082 30.584092 10.701071
109 1 5 0.334804 17.841099 29.222601 10.518389
110 1 6 -0.235918 16.482306 31.220305 9.636868
111 1 25 0.13736 16.505757 30.794534 8.642320
112 1 6 -0.14064 15.685854 32.354310 9.866825
113 1 25 0.145001 15.120267 32.768186 9.041625
114 1 26 -0.102684 18.288927 28.910355 11.487872
115 1 5 -0.093356 18.992629 29.351435 9.514506
116 1 26 -0.000797 19.712665 30.124949 9.857224
117 1 26 -0.000797 19.536258 28.386234 9.430346
118 1 26 -0.000556 0.873375 29.915076 15.329265
119 1 26 -0.040461 14.106892 25.772573 12.538329
120 1 26 0.047784 15.021619 34.842623 11.874055
121 1 26 -0.000797 18.616899 29.630556 8.507653
122 2 5 -0.051233 22.513761 39.167441 8.288642
123 2 26 -0.000556 23.102432 40.099835 8.155023
124 2 26 -0.000556 22.266616 39.062832 9.366580
125 2 5 0.030247 23.307411 37.954540 7.776915
126 2 26 0.028561 23.540247 38.157089 6.707550
127 2 6 0.077933 22.431603 36.716412 7.885020
128 2 6 -0.200132 21.980045 36.247414 9.134132
129 2 25 0.120991 22.266845 36.749094 10.048808
130 2 6 -0.123165 21.146386 35.128239 9.212720
131 2 25 0.137797 20.803689 34.784729 10.180449
132 2 6 -0.043312 20.747812 34.462783 8.049148
133 2 79 1.139467 19.647132 33.049877 8.165369
134 2 6 -0.123165 21.195204 34.917524 6.803539
135 2 25 0.137797 20.892010 34.414486 5.894817
136 2 6 -0.200132 22.030699 36.035669 6.721199
137 2 25 0.120991 22.356555 36.374795 5.745986
138 2 61 -0.686299 18.078839 33.626100 8.557839
139 2 61 -0.686299 19.607116 32.225180 6.659596
140 2 61 -0.686299 20.228630 31.999967 9.392450
141 2 5 -0.167947 24.656731 37.852307 8.538022
142 2 26 0.053829 25.132769 38.854868 8.454772
143 2 26 0.053829 24.479018 37.667677 9.619481
144 2 5 0.061335 25.681099 36.829402 7.970150
145 2 26 0.066322 25.837369 37.085976 6.898143
146 2 6 0.022005 25.166245 35.405011 8.079620
147 2 6 -0.142215 24.884901 34.820317 9.328850
148 2 25 0.122111 25.039041 35.376993 10.243848
149 2 6 -0.138255 24.399709 33.510718 9.404836
150 2 25 0.125927 24.188813 33.079846 10.374418
151 2 6 -0.052124 24.187200 32.769566 8.235933
152 2 79 1.076745 23.555972 31.091961 8.310438
153 2 6 -0.138255 24.466893 33.342668 6.992459
154 2 25 0.125927 24.305468 32.777149 6.083775
155 2 6 -0.142215 24.953137 34.649232 6.912768
156 2 25 0.122111 25.158691 35.071876 5.937533
157 2 61 -0.647047 23.089014 30.724063 9.921514
158 2 61 -0.647047 22.199436 30.976859 7.267507
159 2 61 -0.647047 24.787059 30.019411 7.787561
160 2 5 -0.099102 27.051653 37.041452 8.680704
161 2 26 0.032456 27.308177 38.113581 8.529489
162 2 26 0.032456 26.950271 36.888275 9.776429
163 2 5 0.015778 28.251173 36.215907 8.128984
164 2 26 0.022425 28.293505 36.387374 7.030012
165 2 6 -0.035969 28.088059 34.735784 8.429844
166 2 6 -0.131756 28.019936 34.274726 9.759050
167 2 25 0.101496 28.068163 34.967395 10.588493
168 2 6 -0.139767 27.907672 32.911049 10.031460
169 2 25 0.14135 27.869350 32.574370 11.059393
170 2 6 -0.051918 27.859321 31.986077 8.985896
171 2 79 1.157597 27.752016 30.237897 9.368336
172 2 6 -0.139767 27.910404 32.433162 7.659860
173 2 25 0.14135 27.873996 31.728234 6.840268
174 2 6 -0.131756 28.023078 33.799487 7.382660
175 2 25 0.101496 28.073304 34.125273 6.351314
176 2 61 -0.691163 26.345335 29.977069 10.316573
177 2 61 -0.691163 27.666256 29.330457 7.913065
178 2 61 -0.691163 29.158675 29.795974 10.246273
179 2 5 -0.000586 29.584647 36.774642 8.722786
180 2 26 -0.010501 29.596781 37.866699 8.510622
181 2 26 -0.010501 29.590770 36.661435 9.827912
182 2 5 -0.032579 30.903624 36.202359 8.120779
183 2 26 0.137701 30.868898 36.384615 7.023761
184 2 6 -0.011695 31.048087 34.694848 8.377277
185 2 6 -0.095646 31.131770 34.175347 9.683741
186 2 25 0.111209 31.031444 34.829810 10.539580
187 2 6 -0.184492 31.432997 32.821321 9.899221
188 2 25 0.122822 31.560614 32.472460 10.915997
189 2 6 -0.022823 31.671360 31.956303 8.814432
190 2 5 0.164417 32.211485 30.547635 9.053026
191 2 6 -0.184492 31.472993 32.444849 7.511628
192 2 25 0.122822 31.630023 31.798588 6.657659
193 2 6 -0.095646 31.165309 33.798156 7.295530
194 2 25 0.111209 31.090337 34.158413 6.277390
195 2 26 -0.040461 31.496716 29.822233 8.609357
196 2 5 -0.072194 33.645074 30.281373 8.454219
197 2 26 0.004392 33.593616 30.394405 7.350824
198 2 26 0.004392 33.896362 29.217935 8.655957
199 2 5 0.060914 32.142744 37.033099 8.672181
200 2 26 -0.029666 31.952714 38.108414 8.463343
201 2 26 -0.029666 32.181757 36.924228 9.776926
202 2 5 -0.080441 33.557364 36.706575 8.061281
203 2 26 0.161633 33.497623 36.902039 6.967292
204 2 6 -0.033909 33.883787 35.274213 8.313086
205 2 6 -0.046469 34.015071 34.796511 9.629845
206 2 25 0.119472 33.880525 35.450559 10.481056
207 2 6 -0.154837 34.319617 33.464887 9.858599
208 2 25 0.088671 34.413720 33.112398 10.878270
209 2 6 -0.050237 34.496524 32.597700 8.775246
210 2 5 0.18978 34.812797 31.162637 9.028167
211 2 6 -0.154837 34.369741 33.076473 7.458328
212 2 25 0.088671 34.503396 32.422189 6.607215
213 2 6 -0.046469 34.064855 34.408104 7.229588
214 2 25 0.119472 33.969705 34.760619 6.210041
215 2 26 -0.043781 34.868071 30.966774 10.122428
216 2 5 -0.103886 36.224798 30.833333 8.424287
217 2 26 0.015134 36.195521 30.943662 7.319272
218 2 26 0.015134 36.419524 29.759184 8.635675
219 2 5 0.02372 34.727769 37.589724 8.631151
220 2 26 -0.032673 34.475050 38.652376 8.427035
221 2 26 -0.032673 34.780088 37.480298 9.734892
222 2 5 -0.070608 36.164908 37.324329 8.034280
223 2 26 0.047784 36.112680 37.523540 6.942093
224 2 6 -0.002343 36.715681 35.918748 8.279910
225 2 6 -0.14064 36.914038 35.434897 9.584987
226 2 25 0.145001 36.750211 36.082808 10.436633
227 2 6 -0.235918 37.222730 34.081797 9.806684
228 2 25 0.13736 37.286636 33.724618 10.826797
229 2 6 -0.03349 37.337162 33.180428 8.728531
230 2 5 0.334804 37.444483 31.669710 8.991905
231 2 6 -0.235918 37.270191 33.697669 7.419894
232 2 25 0.13736 37.369401 33.041074 6.565495
233 2 6 -0.14064 36.965961 35.051136 7.199089
234 2 25 0.145001 36.840736 35.396213 6.180572
235 2 26 -0.102684 37.470569 31.494343 10.090318
236 2 5 -0.093356 38.762375 31.132678 8.421679
237 2 26 -0.000797 39.621153 31.680636 8.864933
238 2 26 -0.000797 38.875059 30.055418 8.668750
239 2 26 -0.000556 21.568202 39.274976 7.714675
240 2 26 -0.040461 32.263796 30.343186 10.144284
241 2 26 0.047784 36.875984 38.055703 8.474378
242 2 26 -0.000797 38.795882 31.243960 7.317447
243 3 5 -0.051233 15.191428 38.999608 25.728986
244 3 26 -0.000556 15.287309 39.902805 26.368350
245 3 26 -0.000556 14.384001 39.181300 24.988025
246 3 5 0.030247 14.891362 37.762447 26.590536
247 3 26 0.028561 15.726450 37.675620 27.321200
248 3 6 0.077933 14.866601 36.535796 25.692538
249 3 6 -0.200132 13.910615 36.400012 24.666965
250 3 25 0.120991 13.156783 37.160193 24.510656
251 3 6 -0.123165 13.924189 35.282344 23.827710
252 3 25 0.137797 13.185805 35.196713 23.040693
253 3 6 -0.043312 14.891483 34.286426 23.995290
254 3 79 1.139467 14.917527 32.876172 22.885421
255 3 6 -0.123165 15.842481 34.409213 25.014613
256 3 25 0.137797 16.598810 33.648037 25.153635
257 3 6 -0.200132 15.830853 35.524997 25.857210
258 3 25 0.120991 16.582249 35.602933 26.632812
259 3 61 -0.686299 15.505050 33.406474 21.362526
260 3 61 -0.686299 15.952422 31.661905 23.520736
261 3 61 -0.686299 13.320576 32.264867 22.736315
262 3 5 -0.167947 13.585219 37.990676 27.398189
263 3 26 0.053829 13.713078 38.965705 27.919382
264 3 26 0.053829 12.718863 38.102629 26.711080
265 3 5 0.061335 13.275804 36.938690 28.500790
266 3 26 0.066322 14.165081 36.896397 29.169258
267 3 6 0.022005 13.024327 35.564411 27.905757
268 3 6 -0.142215 11.953915 35.332221 27.021505
269 3 25 0.122111 11.278882 36.134018 26.752580
270 3 6 -0.138255 11.748846 34.060791 26.475932
271 3 25 0.125927 10.921029 33.903132 25.797640
272 3 6 -0.052124 12.610083 33.006512 26.803901
273 3 79 1.076745 12.370992 31.370590 26.107515
274 3 6 -0.138255 13.673194 33.229093 27.683193
275 3 25 0.125927 14.343937 32.420003 27.942140
276 3 6 -0.142215 13.879973 34.496669 28.231270
277 3 25 0.122111 14.712690 34.644428 28.907075
278 3 61 -0.647047 11.150464 31.431718 24.901057
279 3 61 -0.647047 13.852724 30.854892 25.414934
280 3 61 -0.647047 11.911274 30.300988 27.366065
281 3 5 -0.099102 12.091208 37.455039 29.371642
282 3 26 0.032456 12.400253 38.459224 29.738023
283 3 26 0.032456 11.185510 37.607433 28.746467
284 3 5 0.015778 11.741020 36.610909 30.632428
285 3 26 0.022425 12.682843 36.470170 31.208704
286 3 6 -0.035969 11.146588 35.266348 30.249424
287 3 6 -0.131756 9.943149 35.192595 29.521207
288 3 25 0.101496 9.428605 36.091605 29.209572
289 3 6 -0.139767 9.381293 33.955644 29.203881
290 3 25 0.14135 8.449434 33.918812 28.654564
291 3 6 -0.051918 10.009175 32.773871 29.604245
292 3 79 1.157597 9.243806 31.200520 29.213500
293 3 6 -0.139767 11.214134 32.833732 30.315132
294 3 25 0.14135 11.711347 31.926747 30.631576
295 3 6 -0.131756 11.780529 34.071905 30.635290
296 3 25 0.101496 12.706429 34.098356 31.195954
297 3 61 -0.691163 9.053484 31.099761 27.510690
298 3 61 -0.691163 10.234980 29.917481 29.779184
299 3 61 -0.691163 7.716264 31.141476 29.993173
300 3 5 -0.000586 10.770075 37.422932 31.549391
301 3 26 -0.010501 11.252196 38.408699 31.732622
302 3 26 -0.010501 9.816616 37.625148 31.016304
303 3 5 -0.032579 10.476877 36.816838 32.955203
304 3 26 0.137701 11.456966 36.680537 33.463847
305 3 6 -0.011695 9.764557 35.459293 32.860739
306 3 6 -0.095646 8.490818 35.335935 32.272434
307 3 25 0.111209 8.014404 36.193428 31.815724
308 3 6 -0.184492 7.781490 34.126726 32.344712
309 3 25 0.122822 6.776154 34.088954 31.945091
310 3 6 -0.022823 8.322108 33.015190 33.018552
311 3 5 0.164417 7.463859 31.780136 33.285116
312 3 6 -0.184492 9.638758 33.100412 33.502799
313 3 25 0.122822 10.088870 32.256015 34.008732
314 3 6 -0.095646 10.351478 34.308222 33.425125
315 3 25 0.111209 11.336051 34.360898 33.872179
316 3 26 -0.040461 7.966942 30.902441 32.826306
317 3 5 -0.072194 7.200579 31.477123 34.809422
318 3 26 0.004392 8.174206 31.271445 35.302019
319 3 26 0.004392 6.609450 30.537765 34.863431
320 3 5 0.060914 9.663855 37.869200 33.827624
321 3 26 -0.029666 10.235010 38.823032 33.831370
322 3 26 -0.029666 8.696239 38.078198 33.323764
323 3 5 -0.080441 9.402488 37.503590 35.337255
324 3 26 0.161633 10.395780 37.378683 35.823420
325 3 6 -0.033909 8.628588 36.231763 35.409042
326 3 6 -0.046469 7.335484 36.155231 34.860122
327 3 25 0.119472 6.879145 37.008175 34.375682
328 3 6 -0.154837 6.619935 34.971444 34.930373
329 3 25 0.088671 5.627168 34.928219 34.499816
330 3 6 -0.050237 7.188098 33.853112 35.549637
331 3 5 0.18978 6.417349 32.578168 35.611836
332 3 6 -0.154837 8.479490 33.930999 36.102638
333 3 25 0.088671 8.936107 33.077782 36.586237
334 3 6 -0.046469 9.195192 35.114769 36.032085
335 3 25 0.119472 10.188363 35.157965 36.461667
336 3 26 -0.043781 5.425851 32.702398 35.121608
337 3 5 -0.103886 6.150607 32.211651 37.115622
338 3 26 0.015134 7.114213 32.004783 37.628221
339 3 26 0.015134 5.575423 31.260040 37.114833
340 3 5 0.02372 8.621902 38.605518 36.144096
341 3 26 -0.032673 9.215467 39.543338 36.089928
342 3 26 -0.032673 7.648606 38.814814 35.652320
343 3 5 -0.070608 8.355566 38.304174 37.670633
344 3 26 0.047784 9.344841 38.183982 38.162745
345 3 6 -0.002343 7.487265 37.074932 37.943326
346 3 6 -0.14064 6.170071 36.994837 37.458282
347 3 25 0.145001 5.725607 37.839593 36.947628
348 3 6 -0.235918 5.452276 35.788879 37.534160
349 3 25 0.13736 4.472229 35.738776 37.076679
350 3 6 -0.03349 6.036210 34.634111 38.094076
351 3 5 0.334804 5.335004 33.272330 37.963618
352 3 6 -0.235918 7.303126 34.756092 38.697896
353 3 25 0.13736 7.778268 33.896872 39.152801
354 3 6 -0.14064 8.018152 35.963023 38.625515
355 3 25 0.145001 9.022712 35.996888 39.027819
356 3 26 -0.102684 4.359849 33.414889 37.447194
357 3 5 -0.093356 5.025978 32.708768 39.355487
358 3 26 -0.000797 4.403810 33.428676 39.928959
359 3 26 -0.000797 4.459450 31.757350 39.265598
360 3 26 -0.000556 16.150714 38.862604 25.184848
361 3 26 -0.040461 6.473822 31.895065 32.793184
362 3 26 0.047784 7.858919 39.186269 38.128316
363 3 26 -0.000797 5.959212 32.508266 39.922679
364 4 5 -0.051233 38.751549 14.500439 25.050857
365 4 26 -0.000556 38.664265 13.420109 25.293784
366 4 26 -0.000556 39.082364 15.037588 25.965191
367 4 5 0.030247 37.408551 15.044680 24.537990
368 4 26 0.028561 37.138011 14.432607 23.648634
369 4 6 0.077933 37.595261 16.495653 24.123860
370 4 6 -0.200132 37.956347 17.482687 25.061691
371 4 25 0.120991 38.087683 17.230692 26.105634
372 4 6 -0.123165 38.158536 18.805368 24.657527
373 4 25 0.137797 38.441527 19.550196 25.390389
374 4 6 -0.043312 38.007719 19.163056 23.314059
375 4 79 1.139467 38.307369 20.858161 22.805991
376 4 6 -0.123165 37.644006 18.191022 22.375253
377 4 25 0.137797 37.527144 18.452826 21.331916
378 4 6 -0.200132 37.439157 16.867260 22.776212
379 4 25 0.120991 37.167513 16.130688 22.030625
380 4 61 -0.686299 40.000244 21.137133 22.850285
381 4 61 -0.686299 37.717447 21.094411 21.210605
382 4 61 -0.686299 37.494150 21.909198 23.892349
383 4 5 -0.167947 36.308814 14.821942 25.611007
384 4 26 0.053829 36.360218 13.744217 25.884023
385 4 26 0.053829 36.541997 15.399960 26.531194
386 4 5 0.061335 34.847628 15.091232 25.152137
387 4 26 0.066322 34.668677 14.463682 24.250135
388 4 6 0.022005 34.633375 16.553224 24.801959
389 4 6 -0.142215 34.792053 17.569053 25.763472
390 4 25 0.122111 35.064483 17.324758 26.781790
391 4 6 -0.138255 34.601504 18.910161 25.415108
392 4 25 0.125927 34.729096 19.675956 26.168432
393 4 6 -0.052124 34.252724 19.254253 24.103334
394 4 79 1.076745 34.013498 20.968868 23.632986
395 4 6 -0.138255 34.090854 18.250841 23.144238
396 4 25 0.125927 33.821505 18.507704 22.127848
397 4 6 -0.142215 34.278477 16.910701 23.488788
398 4 25 0.122111 34.150727 16.152305 22.726895
399 4 61 -0.647047 34.491884 21.992272 24.926337
400 4 61 -0.647047 34.972648 21.289446 22.247922
401 4 61 -0.647047 32.356617 21.210021 23.264301
402 4 5 -0.099102 33.871088 14.575390 26.251475
403 4 26 0.032456 34.135193 13.506684 26.413486
404 4 26 0.032456 34.055313 15.099789 27.213463
405 4 5 0.015778 32.354508 14.609512 25.899922
406 4 26 0.022425 32.229622 14.092732 24.922029
407 4 6 -0.035969 31.838667 16.035998 25.816656
408 4 6 -0.131756 31.883793 16.884419 26.940111
409 4 25 0.101496 32.299388 16.540135 27.877575
410 4 6 -0.139767 31.374868 18.181519 26.869746
411 4 25 0.14135 31.406775 18.814781 27.746916
412 4 6 -0.051918 30.815575 18.654609 25.680421
413 4 79 1.157597 30.136573 20.313068 25.631670
414 4 6 -0.139767 30.779057 17.826129 24.552079
415 4 25 0.14135 30.348918 18.179181 23.624547
416 4 6 -0.131756 31.288144 16.525062 24.618654
417 4 25 0.101496 31.240221 15.895106 23.739341
418 4 61 -0.691163 31.377407 21.418334 26.061384
419 4 61 -0.691163 29.554739 20.654936 24.052680
420 4 61 -0.691163 28.843743 20.394115 26.757184
421 4 5 -0.000586 31.556851 13.775616 26.954104
422 4 26 -0.010501 32.032690 12.770756 26.993922
423 4 26 -0.010501 31.668414 14.224756 27.964046
424 4 5 -0.032579 30.049429 13.528415 26.643956
425 4 26 0.137701 29.996715 13.034724 25.648284
426 4 6 -0.011695 29.247316 14.837616 26.600864
427 4 6 -0.095646 29.129662 15.666208 27.733704
428 4 25 0.111209 29.659840 15.424048 28.645361
429 4 6 -0.184492 28.258396 16.766859 27.729859
430 4 25 0.122822 28.139065 17.338737 28.641199
431 4 6 -0.022823 27.473212 17.058371 26.598335
432 4 5 0.164417 26.372624 18.114893 26.672313
433 4 6 -0.184492 27.676047 16.304494 25.429637
434 4 25 0.122822 27.100944 16.516955 24.537622
435 4 6 -0.095646 28.552469 15.206910 25.430914
436 4 25 0.111209 28.631410 14.603237 24.535725
437 4 26 -0.040461 26.578362 18.884966 25.898616
438 4 5 -0.072194 24.911896 17.560535 26.463500
439 4 26 0.004392 24.839783 17.130731 25.442240
440 4 26 0.004392 24.219893 18.429375 26.495031
441 4 5 0.060914 29.456245 12.487606 27.690112
442 4 26 -0.029666 30.099740 11.581177 27.671926
443 4 26 -0.029666 29.541324 12.919408 28.709986
444 4 5 -0.080441 27.981433 11.988570 27.451658
445 4 26 0.161633 27.957132 11.494864 26.454537
446 4 6 -0.033909 27.056717 13.157372 27.472092
447 4 6 -0.046469 26.919295 13.934049 28.637072
448 4 25 0.119472 27.478199 13.704819 29.534580
449 4 6 -0.154837 26.057852 15.018489 28.651385
450 4 25 0.088671 25.966271 15.608165 29.555115
451 4 6 -0.050237 25.325088 15.337568 27.503252
452 4 5 0.18978 24.408050 16.513204 27.521261
453 4 6 -0.154837 25.459097 14.558077 26.339635
454 4 25 0.088671 24.900867 14.787906 25.441913
455 4 6 -0.046469 26.320838 13.473774 26.325239
456 4 25 0.119472 26.413358 12.884547 25.421333
457 4 26 -0.043781 24.436073 17.009174 28.517279
458 4 5 -0.103886 22.935270 16.019873 27.288025
459 4 26 0.015134 22.842410 15.582739 26.270980
460 4 26 0.015134 22.288656 16.924195 27.310179
461 4 5 0.02372 27.475532 10.937219 28.506777
462 4 26 -0.032673 28.168033 10.068874 28.472448
463 4 26 -0.032673 27.548666 11.363703 29.529381
464 4 5 -0.070608 26.012440 10.381284 28.300970
465 4 26 0.047784 25.983691 9.881872 27.308474
466 4 6 -0.002343 24.905183 11.433058 28.385214
467 4 6 -0.14064 24.704940 12.183663 29.557040
468 4 25 0.145001 25.286355 11.971842 30.445306
469 4 6 -0.235918 23.828608 13.282455 29.561326
470 4 25 0.13736 23.761020 13.888684 30.455871
471 4 6 -0.03349 23.134510 13.658041 28.392935
472 4 5 0.334804 22.364103 14.987451 28.345011
473 4 6 -0.235918 23.236277 12.823811 27.262334
474 4 25 0.13736 22.706276 13.068711 26.351246
475 4 6 -0.14064 24.109057 11.723159 27.260230
476 4 25 0.145001 24.224249 11.152968 26.347131
477 4 26 -0.102684 22.427791 15.479263 29.341008
478 4 5 -0.093356 20.879286 14.720832 28.071821
479 4 26 -0.000797 20.464405 14.042836 28.847982
480 4 26 -0.000797 20.307764 15.672989 28.103305
481 4 26 -0.000556 39.532999 14.612857 24.268692
482 4 26 -0.040461 26.398667 18.618441 27.662838
483 4 26 0.047784 25.812187 9.606486 29.071562
484 4 26 -0.000797 20.732621 14.257336 27.073575
485 5 5 -0.051233 5.665516 32.059078 20.718745
486 5 26 -0.000556 6.043442 31.067815 21.047854
487 5 26 -0.000556 5.215521 31.942997 19.709783
488 5 5 0.030247 6.805345 33.090353 20.707096
489 5 26 0.028561 7.217787 33.117761 21.740499
490 5 6 0.077933 6.229594 34.451201 20.348921
491 5 6 -0.200132 5.629843 34.684196 19.095862
492 5 25 0.120991 5.585941 33.901112 18.350596
493 5 6 -0.123165 5.073812 35.931090 18.796194
494 5 25 0.137797 4.611467 36.091275 17.830524
495 5 6 -0.043312 5.103806 36.961902 19.740714
496 5 79 1.139467 4.352320 38.545129 19.353458
497 5 6 -0.123165 5.702041 36.742325 20.986665
498 5 25 0.137797 5.729376 37.529705 21.728309
499 5 6 -0.200132 6.260878 35.496849 21.289270
500 5 25 0.120991 6.709894 35.347396 22.263064
501 5 61 -0.686299 2.647573 38.350380 19.392466
502 5 61 -0.686299 4.834272 39.711919 20.517676
503 5 61 -0.686299 4.868434 39.030470 17.790048
504 5 5 -0.167947 7.939622 32.607004 19.763598
505 5 26 0.053829 8.183707 31.569369 20.083608
506 5 26 0.053829 7.572752 32.544415 18.716357
507 5 5 0.061335 9.267955 33.412771 19.830017
508 5 26 0.066322 9.596170 33.412464 20.893843
509 5 6 0.022005 9.076314 34.843987 19.360080
510 5 6 -0.142215 8.664095 35.136032 18.046161
511 5 25 0.122111 8.481872 34.339301 17.337017
512 5 6 -0.138255 8.482145 36.461679 17.638986
513 5 25 0.125927 8.164118 36.665072 16.625227
514 5 6 -0.052124 8.706900 37.511578 18.537872
515 5 79 1.076745 8.469691 39.218434 18.039141
516 5 6 -0.138255 9.118889 37.229196 19.843026
517 5 25 0.125927 9.294793 38.034485 20.544555
518 5 6 -0.142215 9.303342 35.907027 20.252585
519 5 25 0.122111 9.619410 35.714210 21.269878
520 5 61 -0.647047 7.752248 39.267682 16.479712
521 5 61 -0.647047 7.440074 39.978249 19.180944
522 5 61 -0.647047 9.995342 40.000271 18.017728
523 5 5 -0.099102 10.362748 32.646458 19.028479
524 5 26 0.032456 10.397981 31.623957 19.465950
525 5 26 0.032456 10.058036 32.529673 17.966468
526 5 5 0.015778 11.809174 33.216596 19.115449
527 5 26 0.022425 12.054463 33.333910 20.194801
528 5 6 -0.035969 11.921327 34.550505 18.397120
529 5 6 -0.131756 11.665775 34.647619 17.015358
530 5 25 0.101496 11.371401 33.777406 16.444249
531 5 6 -0.139767 11.806231 35.867168 16.352488
532 5 25 0.14135 11.617745 35.919885 15.287988
533 5 6 -0.051918 12.200793 37.008488 17.054503
534 5 79 1.157597 12.408217 38.552936 16.168183
535 5 6 -0.139767 12.442626 36.928229 18.431435
536 5 25 0.14135 12.748791 37.803869 18.987761
537 5 6 -0.131756 12.303024 35.707373 19.099567
538 5 25 0.101496 12.506017 35.662268 20.162155
539 5 61 -0.691163 10.922184 38.940421 15.401700
540 5 61 -0.691163 12.854220 39.795759 17.265947
541 5 61 -0.691163 13.647543 38.336624 15.001119
542 5 5 -0.000586 12.816542 32.171080 18.536618
543 5 26 -0.010501 12.628957 31.214698 19.073178
544 5 26 -0.010501 12.602723 31.984758 17.462504
545 5 5 -0.032579 14.330361 32.486973 18.732026
546 5 26 0.137701 14.499683 32.615435 19.824134
547 5 6 -0.011695 14.750319 33.771475 18.001998
548 5 6 -0.095646 14.657000 33.885913 16.601309
549 5 25 0.111209 14.224454 33.085760 16.015215
550 5 6 -0.184492 15.200178 34.995418 15.934593
551 5 25 0.122822 15.174334 35.015741 14.852584
552 5 6 -0.022823 15.861924 36.011183 16.650243
553 5 5 0.164417 16.638928 37.098066 15.910002
554 5 6 -0.184492 15.852611 35.956553 18.054613
555 5 25 0.122822 16.336688 36.732732 18.633225
556 5 6 -0.095646 15.303607 34.849685 18.722628
557 5 25 0.111209 15.377128 34.804423 19.801776
558 5 26 -0.040461 16.222775 38.084605 16.205812
559 5 5 -0.072194 18.191787 37.098359 16.180691
560 5 26 0.004392 18.362253 37.297111 17.259739
561 5 26 0.004392 18.625136 37.957123 15.624384
562 5 5 0.060914 15.196311 31.227836 18.291233
563 5 26 -0.029666 14.819974 30.342773 18.848961
564 5 26 -0.029666 15.012801 31.028381 17.214025
565 5 5 -0.080441 16.747441 31.292267 18.557340
566 5 26 0.161633 16.889381 31.414758 19.654352
567 5 6 -0.033909 17.324121 32.457539 17.828508
568 5 6 -0.046469 17.264253 32.517327 16.424182
569 5 25 0.119472 16.800364 31.728371 15.847298
570 5 6 -0.154837 17.802586 33.601740 15.751469
571 5 25 0.088671 17.745124 33.634060 14.670503
572 5 6 -0.050237 18.406201 34.636377 16.474061
573 5 5 0.18978 18.973615 35.806701 15.744821
574 5 6 -0.154837 18.470132 34.574379 17.878211
575 5 25 0.088671 18.933208 35.363778 18.455061
576 5 6 -0.046469 17.931473 33.490050 18.550964
577 5 25 0.119472 17.987908 33.457968 19.631973
578 5 26 -0.043781 18.827465 35.685760 14.648082
579 5 5 -0.103886 20.521328 35.872596 16.003853
580 5 26 0.015134 20.713806 36.068044 17.080348
581 5 26 0.015134 20.901292 36.754598 15.443407
582 5 5 0.02372 17.532291 29.999181 18.125494
583 5 26 -0.032673 17.098289 29.142167 18.684001
584 5 26 -0.032673 17.361753 29.796766 17.047116
585 5 5 -0.070608 19.087893 29.997170 18.394117
586 5 26 0.047784 19.235717 30.113622 19.489504
587 5 6 -0.002343 19.872742 31.076375 17.646672
588 5 6 -0.14064 19.880483 31.126076 16.241627
589 5 25 0.145001 19.390102 30.350890 15.666699
590 5 6 -0.235918 20.429155 32.231006 15.568269
591 5 25 0.13736 20.344005 32.276015 14.489837
592 5 6 -0.03349 20.980053 33.313378 16.284478
593 5 5 0.334804 21.363973 34.609465 15.552414
594 5 6 -0.235918 21.090218 33.196906 17.684068
595 5 25 0.13736 21.521867 33.998964 18.268312
596 5 6 -0.14064 20.545499 32.090152 18.356050
597 5 25 0.145001 20.574851 32.073108 19.438171
598 5 26 -0.102684 21.184593 34.476701 14.462395
599 5 5 -0.093356 22.861767 34.884794 15.729071
600 5 26 -0.000797 23.454627 34.021820 15.357554
601 5 26 -0.000797 23.156685 35.783353 15.146109
602 5 26 -0.000556 4.871569 32.375272 21.429206
603 5 26 -0.040461 16.492570 36.986672 14.813850
604 5 26 0.047784 19.499989 29.007087 18.104054
605 5 26 -0.000797 23.113418 35.061539 16.795967
606 6 5 -0.051233 0.794669 26.725416 34.244040
607 6 26 -0.000556 0.058256 26.774247 33.413946
608 6 26 -0.000556 0.933172 27.750982 34.647779
609 6 5 0.030247 2.124492 26.136170 33.746814
610 6 26 0.028561 1.889384 25.130685 33.331477