LAMMPS Description

6331  atoms
5440  bonds
7650  angles
8721  dihedrals
204  impropers

90  atom types
843  bond types
4620  angle types
992  dihedral types
41  improper types

-0.05 43.05 xlo xhi
-0.05 43.05 ylo yhi
-0.05 43.05 zlo zhi

Masses

1 12.01  # c
2 12.01  # cs
3 12.01  # c1
4 12.01  # c2
5 12.01  # c3
6 12.01  # ca
7 12.01  # cp
8 12.01  # cq
9 12.01  # cc
10 12.01  # cd
11 12.01  # ce
12 12.01  # cf
13 12.01  # cg
14 12.01  # ch
15 12.01  # cx
16 12.01  # cy
17 12.01  # cu
18 12.01  # cv
19 12.01  # cz
20 1.008  # h1
21 1.008  # h2
22 1.008  # h3
23 1.008  # h4
24 1.008  # h5
25 1.008  # ha
26 1.008  # hc
27 1.008  # hn
28 1.008  # ho
29 1.008  # hp
30 1.008  # hs
31 1.008  # hw
32 1.008  # hx
33 19.00  # f
34 35.45  # cl
35 79.90  # br
36 126.9  # i
37 14.01  # n
38 14.01  # n1
39 14.01  # n2
40 14.01  # n3
41 14.01  # n4
42 14.01  # na
43 14.01  # nb
44 14.01  # nc
45 14.01  # nd
46 14.01  # ne
47 14.01  # nf
48 14.01  # nh
49 14.01  # no
51 14.01  # nt
52 14.01  # nx
53 14.01  # ny
54 14.01  # nz
55 14.01  # n+
56 14.01  # nu
57 14.01  # nv
58 14.01  # n7
59 14.01  # n8
60 14.01  # n9
61 16.00  # o
62 16.00  # oh
63 16.00  # os
64 16.00  # ow
65 30.97  # p2
66 30.97  # p3
67 30.97  # p4
68 30.97  # p5
69 30.97  # pb
70 30.97  # pc
71 30.97  # pd
72 30.97  # pe
73 30.97  # pf
74 30.97  # px
75 30.97  # py
76 32.06  # s
77 32.06  # s2
78 32.06  # s4
79 32.06  # s6
80 32.06  # sh
81 32.06  # ss
82 32.06  # sx
83 32.06  # sy
84 6.94  # li+
85 39.10  # k+
86 22.99  # na+
87 35.45  # cl-
88 19.00  # fl-
89 79.90  # br-
90 126.9  # i-
50 14.010  # ns

Atoms

1 1 5 -0.064834 25.159 25.003 24.575
2 1 1 0.222095 26.000 23.749 24.609
3 1 61 -0.421224 26.241 23.202 25.643
4 1 50 -0.199073 26.586 23.269 23.411
5 1 27 0.175403 26.386 23.847 22.580
6 1 5 0.184261 27.000 21.883 22.988
7 1 5 -0.100266 28.556 21.860 23.179
8 1 5 -0.100266 26.559 21.713 21.514
9 1 5 0.048604 26.449 20.644 23.750
10 1 79 1.067957 24.709 20.322 23.746
11 1 61 -0.67072 24.690 19.222 24.714
12 1 61 -0.67072 24.385 19.981 22.400
13 1 61 -0.67072 24.159 21.589 24.167
14 1 26 0.016092 29.072 22.413 22.432
15 1 26 0.016092 28.860 20.856 23.009
16 1 26 0.016092 29.052 22.023 24.164
17 1 26 0.016092 25.488 21.836 21.393
18 1 26 0.016092 26.756 20.737 21.149
19 1 26 0.016092 27.070 22.398 20.799
20 1 20 0.009122 26.758 20.670 24.798
21 1 20 0.009122 26.949 19.682 23.456
22 1 26 0.110917 24.740 25.083 23.596
23 1 5 -0.011873 25.914 26.230 25.083
24 1 1 0.615339 26.282 26.090 26.588
25 1 61 -0.561397 27.447 26.192 27.003
26 1 63 -0.237444 25.189 26.103 27.359
27 1 5 -0.084855 25.275 25.946 28.752
28 1 5 0.13222 25.712 24.478 29.063
29 1 63 -0.455502 25.393 24.019 30.433
30 1 5 0.114684 24.027 23.617 30.799
31 1 5 0.021605 23.766 22.158 30.448
32 1 63 -0.293251 23.126 22.344 29.179
33 1 5 -0.032933 22.758 21.128 28.439
34 1 5 0.124764 22.381 21.631 27.037
35 1 63 -0.408629 21.115 22.448 26.906
36 1 5 0.12378 19.805 21.892 26.991
37 1 5 0.151903 19.463 21.185 25.712
38 1 63 -0.326818 19.759 21.989 24.535
39 1 20 0.114474 25.799 26.726 29.325
40 1 20 0.114474 24.258 26.112 29.184
41 1 20 0.076629 25.307 23.816 28.281
42 1 20 0.076629 26.834 24.427 28.953
43 1 20 0.048212 23.812 23.874 31.808
44 1 20 0.048212 23.291 24.267 30.275
45 1 20 0.054681 24.683 21.551 30.357
46 1 20 0.054681 23.094 21.635 31.158
47 1 20 0.058887 23.623 20.431 28.403
48 1 20 0.058887 21.880 20.627 28.865
49 1 20 0.087894 23.128 22.241 26.654
50 1 20 0.087894 22.262 20.667 26.430
51 1 20 0.02648 19.725 21.125 27.858
52 1 20 0.02648 19.057 22.673 27.224
53 1 20 0.036537 18.373 20.915 25.705
54 1 20 0.036537 20.117 20.268 25.613
55 1 1 0.727713 18.933 23.027 24.394
56 1 61 -0.576378 17.962 23.208 25.072
57 1 5 -0.020814 19.425 24.006 23.336
58 1 26 0.067554 26.877 26.065 24.606
59 1 26 -0.02174 20.541 23.957 23.426
60 1 5 -0.024924 25.308 27.625 24.581
61 1 1 0.470545 24.131 28.074 25.517
62 1 61 -0.510544 24.084 29.068 26.273
63 1 63 -0.240725 23.051 27.269 25.274
64 1 5 -0.013005 21.924 27.322 26.160
65 1 5 0.119773 20.774 26.346 25.809
66 1 63 -0.420621 19.622 26.597 26.724
67 1 5 0.099176 18.813 27.754 26.521
68 1 5 0.161534 17.775 27.340 25.422
69 1 63 -0.458288 16.989 28.500 25.175
70 1 5 0.05472 16.140 28.393 24.089
71 1 5 0.076753 14.900 27.473 24.399
72 1 63 -0.389014 15.115 26.137 23.941
73 1 5 0.064058 14.677 25.862 22.540
74 1 5 -0.090567 15.381 24.523 22.138
75 1 63 -0.173198 16.798 24.542 22.049
76 1 20 0.101034 22.300 27.112 27.216
77 1 20 0.101034 21.467 28.324 26.091
78 1 20 0.049284 20.445 26.644 24.816
79 1 20 0.049284 21.043 25.268 25.872
80 1 20 0.046057 18.356 28.086 27.484
81 1 20 0.046057 19.455 28.533 26.127
82 1 20 0.088904 18.252 26.952 24.527
83 1 20 0.088904 17.108 26.566 25.782
84 1 20 0.069914 15.849 29.393 23.845
85 1 20 0.069914 16.666 27.938 23.177
86 1 20 0.06545 14.661 27.477 25.517
87 1 20 0.06545 14.005 27.839 23.856
88 1 20 0.050458 13.608 25.808 22.496
89 1 20 0.050458 15.038 26.701 21.877
90 1 20 0.129934 14.902 24.142 21.255
91 1 20 0.129934 15.171 23.813 22.942
92 1 1 0.480209 17.470 23.432 21.752
93 1 61 -0.503245 16.904 22.389 21.616
94 1 5 0.005732 18.996 23.581 21.857
95 1 26 0.086901 26.025 28.376 24.869
96 1 26 0.055053 19.497 22.578 21.690
97 1 5 -0.061618 24.950 27.646 22.996
98 1 1 0.006984 26.101 27.073 22.168
99 1 61 -0.316241 25.926 26.156 21.374
100 1 63 -0.165503 27.226 27.778 22.396
101 1 5 0.105106 28.535 27.193 21.952
102 1 5 0.117578 28.841 27.549 20.458
103 1 63 -0.320653 28.234 26.609 19.500
104 1 5 0.063637 28.763 25.279 19.422
105 1 5 0.029282 28.075 24.313 18.498
106 1 63 -0.194674 26.642 24.529 18.605
107 1 5 -0.009242 25.861 23.716 17.768
108 1 5 0.038187 24.316 24.078 17.844
109 1 63 -0.384229 23.714 23.440 18.877
110 1 5 -0.014226 23.875 24.113 20.112
111 1 5 0.009599 23.121 23.292 21.206
112 1 63 -0.33938 21.649 23.378 20.872
113 1 20 0.057043 29.284 27.636 22.571
114 1 20 0.057043 28.725 26.193 22.114
115 1 20 0.032527 28.404 28.537 20.119
116 1 20 0.032527 29.935 27.591 20.262
117 1 20 0.057362 29.818 25.342 19.171
118 1 20 0.057362 28.612 24.792 20.432
119 1 20 0.038983 28.398 24.596 17.500
120 1 20 0.038983 28.410 23.269 18.750
121 1 20 0.056343 26.230 23.842 16.783
122 1 20 0.056343 25.949 22.697 18.058
123 1 20 0.088918 24.181 25.158 18.043
124 1 20 0.088918 23.889 23.640 16.886
125 1 20 0.156904 24.916 24.139 20.524
126 1 20 0.156904 23.602 25.210 20.179
127 1 20 0.155332 23.282 23.649 22.243
128 1 20 0.155332 23.401 22.270 21.219
129 1 1 0.379316 21.019 24.638 20.923
130 1 61 -0.341833 21.479 25.595 21.374
131 1 5 0.022239 19.577 24.418 20.613
132 1 26 -0.044273 24.156 26.890 22.799
133 1 26 -0.043411 19.037 25.377 20.487
134 1 5 0.013273 24.492 29.042 22.484
135 1 1 0.315224 23.375 29.711 23.257
136 1 61 -0.440046 23.400 30.792 23.876
137 1 63 -0.079419 22.221 29.048 22.966
138 1 5 -0.022401 20.958 29.508 23.370
139 1 5 -0.009931 20.441 30.515 22.326
140 1 63 -0.36748 20.376 29.867 21.047
141 1 5 0.049975 19.469 28.734 20.863
142 1 5 0.087401 17.952 29.220 20.861
143 1 63 -0.398109 17.696 30.363 19.979
144 1 5 0.12569 17.603 29.938 18.603
145 1 5 0.05114 16.154 29.432 18.180
146 1 63 -0.336734 16.054 28.013 18.370
147 1 5 0.053992 16.620 27.256 17.301
148 1 5 0.016258 16.487 25.776 17.695
149 1 63 -0.222559 17.729 25.341 18.389
150 1 20 0.091829 20.283 28.694 23.460
151 1 20 0.091829 21.064 29.916 24.372
152 1 20 0.095311 19.386 30.812 22.571
153 1 20 0.095311 21.029 31.400 22.370
154 1 20 0.046702 19.724 28.373 19.861
155 1 20 0.046702 19.489 27.934 21.612
156 1 20 0.053859 17.331 28.376 20.499
157 1 20 0.053859 17.601 29.514 21.880
158 1 20 0.046591 17.859 30.815 18.005
159 1 20 0.046591 18.369 29.178 18.343
160 1 20 0.051636 15.361 29.862 18.751
161 1 20 0.051636 15.880 29.739 17.145
162 1 20 0.053041 16.168 27.517 16.383
163 1 20 0.053041 17.712 27.429 17.219
164 1 20 0.084748 16.383 25.223 16.733
165 1 20 0.084748 15.553 25.657 18.192
166 1 1 0.268048 17.900 23.999 18.665
167 1 61 -0.418054 17.204 22.996 18.407
168 1 5 0.015692 19.306 23.692 19.274
169 1 26 0.086891 25.405 29.646 22.543
170 1 26 0.079668 19.412 22.631 19.322
171 1 5 0.189124 24.075 28.888 20.957
172 1 1 0.691036 23.633 30.142 20.175
173 1 61 -0.55956 23.532 31.270 20.618
174 1 63 -0.351838 23.617 29.797 18.829
175 1 5 0.061411 22.772 30.555 17.971
176 1 5 0.002798 22.915 30.110 16.500
177 1 63 -0.344871 22.840 28.679 16.325
178 1 5 -0.052278 21.558 28.070 16.568
179 1 5 0.040495 20.590 28.425 15.450
180 1 63 -0.386643 21.218 28.493 14.082
181 1 5 0.067818 21.593 27.176 13.503
182 1 5 0.040988 20.311 26.574 12.792
183 1 63 -0.342146 19.524 25.692 13.694
184 1 5 -0.061806 20.181 24.470 13.996
185 1 5 -0.025605 19.169 23.543 14.618
186 1 63 -0.300453 19.280 23.815 16.013
187 1 20 0.073511 21.700 30.494 18.326
188 1 20 0.073511 23.025 31.643 18.021
189 1 20 0.086569 22.166 30.568 15.912
190 1 20 0.086569 23.872 30.555 16.195
191 1 20 0.099542 21.586 27.023 16.756
192 1 20 0.099542 21.179 28.522 17.490
193 1 20 0.080529 19.758 27.741 15.509
194 1 20 0.080529 20.160 29.428 15.663
195 1 20 0.068977 22.393 27.285 12.725
196 1 20 0.068977 22.056 26.489 14.227
197 1 20 0.063577 19.676 27.297 12.337
198 1 20 0.063577 20.685 25.951 11.946
199 1 20 0.10265 20.469 24.031 13.056
200 1 20 0.10265 21.075 24.510 14.514
201 1 20 0.108525 19.413 22.492 14.488
202 1 20 0.108525 18.128 23.705 14.177
203 1 1 0.758167 20.197 23.284 16.871
204 1 61 -0.584437 21.027 22.497 16.463
205 1 5 -0.006456 20.284 24.113 18.172
206 1 26 -0.085676 24.838 28.474 20.430
207 1 26 0.002565 21.309 24.045 18.542
208 1 26 0.110917 24.287 24.831 25.178
209 1 26 -0.085676 23.248 28.166 20.916
210 1 26 -0.02174 19.136 25.019 23.598
211 1 26 0.002565 20.124 25.141 17.967
212 2 5 -0.064834 24.498 35.365 14.542
213 2 1 0.222095 24.895 36.400 15.567
214 2 61 -0.421224 25.879 36.259 16.228
215 2 50 -0.199073 24.041 37.506 15.811
216 2 27 0.175403 23.177 37.504 15.248
217 2 5 0.184261 24.328 38.896 16.317
218 2 5 -0.100266 23.904 38.863 17.825
219 2 5 -0.100266 23.481 39.868 15.461
220 2 5 0.048604 25.781 39.447 16.285
221 2 79 1.067957 26.604 39.647 14.731
222 2 61 -0.67072 27.938 39.986 15.231
223 2 61 -0.67072 25.901 40.689 14.057
224 2 61 -0.67072 26.431 38.349 14.120
225 2 26 0.016092 22.848 38.861 17.958
226 2 26 0.016092 24.212 39.792 18.240
227 2 26 0.016092 24.368 38.180 18.575
228 2 26 0.016092 23.721 39.798 14.406
229 2 26 0.016092 23.666 40.882 15.707
230 2 26 0.016092 22.379 39.740 15.574
231 2 20 0.009122 26.437 38.833 16.906
232 2 20 0.009122 25.901 40.421 16.832
233 2 26 0.110917 23.875 35.849 13.820
234 2 5 -0.011873 23.926 34.099 15.178
235 2 1 0.615339 24.994 33.359 16.033
236 2 61 -0.561397 24.815 33.080 17.230
237 2 63 -0.237444 25.972 32.863 15.268
238 2 5 -0.084855 27.070 32.191 15.829
239 2 5 0.13222 27.943 33.227 16.610
240 2 63 -0.455502 29.340 32.799 16.846
241 2 5 0.114684 30.343 32.865 15.773
242 2 5 0.021605 30.975 34.248 15.690
243 2 63 -0.293251 30.162 34.804 14.648
244 2 5 -0.032933 30.408 36.209 14.294
245 2 5 0.124764 29.222 36.593 13.396
246 2 63 -0.408629 29.150 35.955 12.027
247 2 5 0.12378 30.006 36.310 10.943
248 2 5 0.151903 29.561 37.612 10.344
249 2 63 -0.326818 28.129 37.645 10.085
250 2 20 0.114474 26.878 31.244 16.357
251 2 20 0.114474 27.682 31.769 14.997
252 2 20 0.076629 27.869 34.203 16.105
253 2 20 0.076629 27.470 33.374 17.625
254 2 20 0.048212 31.040 32.065 15.853
255 2 20 0.048212 29.869 32.609 14.799
256 2 20 0.054681 30.898 34.830 16.624
257 2 20 0.054681 32.045 34.240 15.395
258 2 20 0.058887 30.440 36.832 15.216
259 2 20 0.058887 31.329 36.339 13.713
260 2 20 0.087894 28.324 36.344 13.850
261 2 20 0.087894 29.340 37.725 13.269
262 2 20 0.02648 31.106 36.433 11.294
263 2 20 0.02648 30.033 35.510 10.180
264 2 20 0.036537 30.109 37.795 9.381
265 2 20 0.036537 29.743 38.442 11.089
266 2 1 0.727713 27.763 36.849 9.079
267 2 61 -0.576378 28.534 36.274 8.366
268 2 5 -0.020814 26.252 36.679 9.009
269 2 26 0.067554 23.300 34.545 15.947
270 2 26 -0.02174 25.929 36.707 10.083
271 2 5 -0.024924 23.013 33.228 14.192
272 2 1 0.470545 23.907 32.277 13.320
273 2 61 -0.510544 23.949 31.029 13.337
274 2 63 -0.240725 24.568 33.034 12.390
275 2 5 -0.013005 25.624 32.437 11.624
276 2 5 0.119773 26.323 33.393 10.627
277 2 63 -0.420621 27.301 32.617 9.809
278 2 5 0.099176 26.817 31.760 8.775
279 2 5 0.161534 26.607 32.692 7.534
280 2 63 -0.458288 26.080 31.859 6.508
281 2 5 0.05472 25.641 32.541 5.389
282 2 5 0.076753 26.839 33.065 4.512
283 2 63 -0.389014 27.146 34.429 4.812
284 2 5 0.064058 26.409 35.444 4.002
285 2 5 -0.090567 26.578 36.796 4.774
286 2 63 -0.173198 25.972 36.884 6.056
287 2 20 0.101034 26.390 32.014 12.355
288 2 20 0.101034 25.194 31.642 10.991
289 2 20 0.049284 25.537 33.710 9.944
290 2 20 0.049284 26.859 34.247 11.098
291 2 20 0.046057 27.529 30.916 8.603
292 2 20 0.046057 25.857 31.375 9.098
293 2 20 0.088904 25.970 33.543 7.759
294 2 20 0.088904 27.549 33.092 7.177
295 2 20 0.069914 25.020 31.853 4.853
296 2 20 0.069914 25.010 33.457 5.665
297 2 20 0.06545 27.764 32.408 4.652
298 2 20 0.06545 26.567 33.047 3.437
299 2 20 0.050458 26.805 35.473 3.006
300 2 20 0.050458 25.319 35.155 3.965
301 2 20 0.129934 26.302 37.598 4.114
302 2 20 0.129934 27.646 36.902 4.974
303 2 1 0.480209 26.106 37.986 6.789
304 2 61 -0.503245 26.786 38.894 6.415
305 2 5 0.005732 25.535 37.861 8.211
306 2 26 0.086901 22.551 32.476 14.810
307 2 26 0.055053 25.772 38.795 8.809
308 2 5 -0.061618 21.947 34.111 13.343
309 2 1 0.006984 21.209 35.099 14.247
310 2 61 -0.316241 21.181 36.298 13.998
311 2 63 -0.165503 20.576 34.434 15.233
312 2 5 0.105106 20.075 35.217 16.412
313 2 5 0.117578 18.647 35.799 16.143
314 2 63 -0.320653 18.668 37.097 15.445
315 2 5 0.063637 19.140 38.246 16.159
316 2 5 0.029282 19.232 39.541 15.401
317 2 63 -0.194674 19.729 39.251 14.067
318 2 5 -0.009242 19.836 40.367 13.224
319 2 5 0.038187 20.271 39.970 11.747
320 2 63 -0.384229 21.619 39.872 11.643
321 2 5 -0.014226 22.117 38.617 12.068
322 2 5 0.009599 23.667 38.628 11.879
323 2 63 -0.33938 23.920 38.695 10.389
324 2 20 0.057043 20.018 34.526 17.224
325 2 20 0.057043 20.673 35.947 16.826
326 2 20 0.032527 18.015 35.172 15.443
327 2 20 0.032527 18.068 35.920 17.086
328 2 20 0.057362 18.524 38.380 17.043
329 2 20 0.057362 20.220 38.056 16.439
330 2 20 0.038983 18.210 39.898 15.324
331 2 20 0.038983 19.867 40.262 15.989
332 2 20 0.056343 18.892 40.846 13.221
333 2 20 0.056343 20.578 41.035 13.589
334 2 20 0.088918 19.881 38.968 11.486
335 2 20 0.088918 19.952 40.863 11.123
336 2 20 0.156904 22.024 38.397 13.163
337 2 20 0.156904 21.669 37.673 11.632
338 2 20 0.155332 24.190 37.745 12.296
339 2 20 0.155332 24.131 39.465 12.333
340 2 1 0.379316 23.502 37.613 9.586
341 2 61 -0.341833 23.145 36.590 9.981
342 2 5 0.022239 23.929 37.917 8.190
343 2 26 -0.044273 22.508 34.811 12.683
344 2 26 -0.043411 23.510 37.187 7.467
345 2 5 0.013273 20.971 33.250 12.490
346 2 1 0.315224 21.600 32.214 11.581
347 2 61 -0.440046 21.463 30.978 11.602
348 2 63 -0.079419 22.174 32.882 10.540
349 2 5 -0.022401 22.696 32.226 9.414
350 2 5 -0.009931 21.556 31.986 8.406
351 2 63 -0.36748 20.976 33.250 8.053
352 2 5 0.049975 21.795 34.247 7.365
353 2 5 0.087401 22.094 33.795 5.866
354 2 63 -0.398109 20.902 33.361 5.129
355 2 5 0.12569 20.139 34.498 4.676
356 2 5 0.05114 20.638 35.101 3.288
357 2 63 -0.336734 21.595 36.144 3.523
358 2 5 0.053992 20.996 37.400 3.843
359 2 5 0.016258 22.149 38.376 4.123
360 2 63 -0.222559 22.445 38.378 5.582
361 2 20 0.091829 23.460 32.813 8.970
362 2 20 0.091829 23.185 31.318 9.761
363 2 20 0.095311 21.970 31.563 7.453
364 2 20 0.095311 20.886 31.260 8.801
365 2 20 0.046702 21.147 35.129 7.342
366 2 20 0.046702 22.787 34.468 7.776
367 2 20 0.053859 22.515 34.670 5.331
368 2 20 0.053859 22.827 32.954 5.817
369 2 20 0.046591 19.116 34.136 4.554
370 2 20 0.046591 20.074 35.296 5.443
371 2 20 0.051636 21.126 34.390 2.659
372 2 20 0.051636 19.797 35.436 2.642
373 2 20 0.053041 20.333 37.699 3.075
374 2 20 0.053041 20.432 37.348 4.797
375 2 20 0.084748 21.769 39.378 3.818
376 2 20 0.084748 22.936 38.151 3.441
377 2 1 0.268048 23.322 39.319 6.080
378 2 61 -0.418054 23.937 40.261 5.539
379 2 5 0.015692 23.421 39.272 7.639
380 2 26 0.086891 20.344 32.757 13.243
381 2 26 0.079668 23.999 40.114 7.951
382 2 5 0.189124 20.065 34.240 11.636
383 2 1 0.691036 18.958 33.652 10.737
384 2 61 -0.55956 18.710 32.472 10.578
385 2 63 -0.351838 18.142 34.708 10.351
386 2 5 0.061411 17.401 34.552 9.147
387 2 5 0.002798 16.488 35.769 8.886
388 2 63 -0.344871 17.167 37.036 9.026
389 2 5 -0.052278 18.160 37.345 8.030
390 2 5 0.040495 17.489 37.663 6.703
391 2 63 -0.386643 16.191 38.420 6.828
392 2 5 0.067818 16.338 39.842 7.234
393 2 5 0.040988 16.612 40.697 5.928
394 2 63 -0.342146 18.064 40.866 5.655
395 2 5 -0.061806 18.713 41.713 6.591
396 2 5 -0.025605 20.065 42.074 6.027
397 2 63 -0.300453 20.920 41.051 6.533
398 2 20 0.073511 18.099 34.358 8.281
399 2 20 0.073511 16.748 33.646 9.195
400 2 20 0.086569 16.074 35.707 7.915
401 2 20 0.086569 15.660 35.618 9.590
402 2 20 0.099542 18.864 38.092 8.313
403 2 20 0.099542 18.745 36.429 7.893
404 2 20 0.080529 18.217 38.156 6.078
405 2 20 0.080529 17.261 36.706 6.186
406 2 20 0.068977 15.396 40.232 7.703
407 2 20 0.068977 17.084 40.003 8.027
408 2 20 0.063577 16.112 40.344 5.055
409 2 20 0.063577 16.179 41.707 6.116
410 2 20 0.10265 18.141 42.625 6.635
411 2 20 0.10265 18.747 41.416 7.580
412 2 20 0.108525 20.451 43.016 6.407
413 2 20 0.108525 20.032 42.157 4.889
414 2 1 0.758167 21.512 41.023 7.760
415 2 61 -0.584437 21.326 41.933 8.545
416 2 5 -0.006456 22.001 39.601 8.109
417 2 26 -0.085676 19.612 34.911 12.250
418 2 26 0.002565 21.934 39.481 9.192
419 2 26 0.110917 25.369 35.125 13.962
420 2 26 -0.085676 20.738 34.822 10.991
421 2 26 -0.02174 26.001 35.690 8.638
422 2 26 0.002565 21.345 38.874 7.702
423 3 5 -0.064834 16.835 36.683 34.901
424 3 1 0.222095 16.715 37.406 36.222
425 3 61 -0.421224 15.675 37.879 36.569
426 3 50 -0.199073 17.872 37.605 37.017
427 3 27 0.175403 18.741 37.230 36.603
428 3 5 0.184261 18.045 37.784 38.502
429 3 5 -0.100266 18.248 39.327 38.694
430 3 5 -0.100266 19.278 36.946 38.917
431 3 5 0.048604 16.899 37.372 39.469
432 3 79 1.067957 16.393 35.678 39.549
433 3 61 -0.67072 15.218 35.842 40.410
434 3 61 -0.67072 17.496 34.974 40.118
435 3 61 -0.67072 16.161 35.359 38.160
436 3 26 0.016092 19.208 39.658 38.384
437 3 26 0.016092 18.245 39.498 39.743
438 3 26 0.016092 17.484 40.084 38.397
439 3 26 0.016092 19.156 35.895 38.680
440 3 26 0.016092 19.440 36.963 39.964
441 3 26 0.016092 20.240 37.291 38.470
442 3 20 0.009122 15.998 37.957 39.268
443 3 20 0.009122 17.071 37.699 40.531
444 3 26 0.110917 17.670 36.019 34.973
445 3 5 -0.011873 16.837 37.637 33.708
446 3 1 0.615339 15.482 38.389 33.579
447 3 61 -0.561397 15.407 39.627 33.550
448 3 63 -0.237444 14.489 37.552 33.259
449 3 5 -0.084855 13.165 38.003 33.132
450 3 5 0.13222 12.633 38.399 34.548
451 3 63 -0.455502 11.159 38.434 34.664
452 3 5 0.114684 10.381 37.193 34.793
453 3 5 0.021605 10.299 36.740 36.244
454 3 63 -0.293251 11.375 35.792 36.244
455 3 5 -0.032933 11.690 35.147 37.526
456 3 5 0.124764 13.033 34.440 37.282
457 3 63 -0.408629 13.033 33.251 36.348
458 3 5 0.12378 12.497 31.976 36.693
459 3 5 0.151903 13.445 31.246 37.600
460 3 63 -0.326818 14.813 31.268 37.106
461 3 20 0.114474 12.942 38.721 32.327
462 3 20 0.114474 12.545 37.159 32.744
463 3 20 0.076629 13.111 37.749 35.298
464 3 20 0.076629 13.004 39.442 34.771
465 3 20 0.048212 9.439 37.282 34.304
466 3 20 0.048212 10.843 36.393 34.174
467 3 20 0.054681 10.469 37.549 36.975
468 3 20 0.054681 9.341 36.250 36.513
469 3 20 0.058887 11.775 35.916 38.326
470 3 20 0.058887 10.953 34.385 37.805
471 3 20 0.087894 13.722 35.096 36.871
472 3 20 0.087894 13.344 34.090 38.327
473 3 20 0.02648 11.480 32.079 37.244
474 3 20 0.02648 12.276 31.380 35.787
475 3 20 0.036537 13.116 30.180 37.716
476 3 20 0.036537 13.483 31.779 38.595
477 3 1 0.727713 14.987 30.514 36.019
478 3 61 -0.576378 14.152 29.782 35.572
479 3 5 -0.020814 16.335 30.770 35.358
480 3 26 0.067554 17.485 38.418 34.098
481 3 26 -0.02174 16.517 31.862 35.535
482 3 5 -0.024924 17.488 37.020 32.381
483 3 1 0.470545 16.423 36.180 31.592
484 3 61 -0.510544 15.936 36.415 30.466
485 3 63 -0.240725 16.191 35.019 32.278
486 3 5 -0.013005 15.090 34.183 31.890
487 3 5 0.119773 14.903 32.914 32.755
488 3 63 -0.420621 13.816 32.076 32.167
489 3 5 0.099176 14.079 31.330 30.979
490 3 5 0.161534 14.755 30.003 31.470
491 3 63 -0.458288 15.065 29.268 30.293
492 3 5 0.05472 15.849 28.150 30.510
493 3 5 0.076753 15.031 26.977 31.169
494 3 63 -0.389014 15.199 26.960 32.589
495 3 5 0.064058 16.340 26.136 33.088
496 3 5 -0.090567 16.575 26.602 34.564
497 3 63 -0.173198 17.016 27.938 34.755
498 3 20 0.101034 14.143 34.817 31.924
499 3 20 0.101034 15.279 33.801 30.874
500 3 20 0.049284 15.825 32.349 32.630
501 3 20 0.049284 14.655 33.108 33.822
502 3 20 0.046057 13.140 31.180 30.396
503 3 20 0.046057 14.794 31.896 30.394
504 3 20 0.088904 15.623 30.189 32.097
505 3 20 0.088904 14.067 29.405 32.056
506 3 20 0.069914 16.242 27.878 29.552
507 3 20 0.069914 16.729 28.371 31.211
508 3 20 0.06545 13.923 27.053 30.899
509 3 20 0.06545 15.404 25.998 30.808
510 3 20 0.050458 16.102 25.095 33.007
511 3 20 0.050458 17.250 26.364 32.462
512 3 20 0.129934 17.195 25.874 35.053
513 3 20 0.129934 15.601 26.569 35.055
514 3 1 0.480209 17.200 28.420 35.982
515 3 61 -0.503245 16.939 27.763 36.945
516 3 5 0.005732 17.515 29.924 36.019
517 3 26 0.086901 17.573 37.842 31.689
518 3 26 0.055053 17.559 30.284 37.094
519 3 5 -0.061618 18.892 36.247 32.644
520 3 1 0.006984 19.821 37.082 33.525
521 3 61 -0.316241 20.306 36.629 34.556
522 3 63 -0.165503 20.054 38.276 32.946
523 3 5 0.105106 20.658 39.367 33.781
524 3 5 0.117578 22.222 39.278 33.789
525 3 63 -0.320653 22.747 38.366 34.819
526 3 5 0.063637 22.637 38.753 36.194
527 3 5 0.029282 23.104 37.769 37.231
528 3 63 -0.194674 22.699 36.439 36.806
529 3 5 -0.009242 23.098 35.403 37.664
530 3 5 0.038187 22.728 33.968 37.091
531 3 63 -0.384229 21.457 33.625 37.412
532 3 5 -0.014226 20.496 34.167 36.524
533 3 5 0.009599 19.087 33.681 36.989
534 3 63 -0.33938 19.052 32.185 36.779
535 3 20 0.057043 20.368 40.286 33.322
536 3 20 0.057043 20.315 39.519 34.742
537 3 20 0.032527 22.665 38.840 32.844
538 3 20 0.032527 22.688 40.277 33.936
539 3 20 0.057362 23.151 39.701 36.327
540 3 20 0.057362 21.535 38.848 36.435
541 3 20 0.038983 24.189 37.828 37.209
542 3 20 0.038983 22.704 38.082 38.235
543 3 20 0.056343 24.144 35.497 37.797
544 3 20 0.056343 22.605 35.490 38.603
545 3 20 0.088918 22.762 33.973 35.985
546 3 20 0.088918 23.417 33.265 37.657
547 3 20 0.156904 20.374 35.280 36.552
548 3 20 0.156904 20.624 34.003 35.411
549 3 20 0.155332 18.237 34.145 36.449
550 3 20 0.155332 18.902 33.878 38.015
551 3 1 0.379316 19.148 31.687 35.463
552 3 61 -0.341833 19.066 32.323 34.504
553 3 5 0.022239 19.027 30.204 35.548
554 3 26 -0.044273 18.700 35.375 33.310
555 3 26 -0.043411 19.239 29.722 34.572
556 3 5 0.013273 19.589 35.770 31.336
557 3 1 0.315224 18.744 34.960 30.376
558 3 61 -0.440046 18.425 35.232 29.205
559 3 63 -0.079419 18.573 33.724 30.925
560 3 5 -0.022401 17.989 32.658 30.226
561 3 5 -0.009931 19.078 31.950 29.398
562 3 63 -0.36748 20.110 31.491 30.285
563 3 5 0.049975 19.788 30.489 31.299
564 3 5 0.087401 19.527 29.068 30.626
565 3 63 -0.398109 20.564 28.666 29.668
566 3 5 0.12569 21.731 28.169 30.355
567 3 5 0.05114 21.648 26.627 30.739
568 3 63 -0.336734 21.108 26.478 32.061
569 3 5 0.053992 22.073 26.673 33.092
570 3 5 0.016258 21.320 26.544 34.426
571 3 63 -0.222559 20.875 27.892 34.870
572 3 20 0.091829 17.543 31.974 30.906
573 3 20 0.091829 17.169 33.063 29.635
574 3 20 0.095311 18.656 31.028 28.919
575 3 20 0.095311 19.392 32.592 28.611
576 3 20 0.046702 20.708 30.431 31.892
577 3 20 0.046702 18.900 30.652 31.920
578 3 20 0.053859 19.513 28.311 31.436
579 3 20 0.053859 18.553 29.031 30.081
580 3 20 0.046591 22.564 28.317 29.665
581 3 20 0.046591 21.986 28.777 31.248
582 3 20 0.051636 21.016 26.054 30.096
583 3 20 0.051636 22.624 26.104 30.621
584 3 20 0.053041 22.886 26.008 32.971
585 3 20 0.053041 22.463 27.711 33.089
586 3 20 0.084748 22.066 26.140 35.149
587 3 20 0.084748 20.592 25.774 34.312
588 3 1 0.268048 20.339 28.033 36.134
589 3 61 -0.418054 20.171 27.220 37.067
590 3 5 0.015692 20.045 29.525 36.493
591 3 26 0.086891 19.904 36.706 30.861
592 3 26 0.079668 19.775 29.560 37.526
593 3 5 0.189124 20.883 34.942 31.749
594 3 1 0.691036 21.805 34.397 30.638
595 3 61 -0.55956 21.630 34.505 29.439
596 3 63 -0.351838 22.984 33.989 31.250
597 3 5 0.061411 23.758 33.000 30.582
598 3 5 0.002798 25.069 32.704 31.340
599 3 63 -0.344871 24.876 32.478 32.753
600 3 5 -0.052278 24.185 31.270 33.120
601 3 5 0.040495 25.077 30.062 32.880
602 3 63 -0.386643 26.535 30.296 33.184
603 3 5 0.067818 26.860 30.400 34.630
604 3 5 0.040988 27.065 28.931 35.191
605 3 63 -0.342146 25.813 28.358 35.751
606 3 5 -0.061806 25.405 28.980 36.958
607 3 5 -0.025605 24.348 28.110 37.592
608 3 63 -0.300453 23.130 28.618 37.051
609 3 20 0.073511 23.144 32.066 30.423
610 3 20 0.073511 24.032 33.338 29.552
611 3 20 0.086569 25.544 31.859 30.919
612 3 20 0.086569 25.698 33.570 31.101
613 3 20 0.099542 23.766 31.270 34.098
614 3 20 0.099542 23.331 31.191 32.439
615 3 20 0.080529 24.654 29.229 33.418
616 3 20 0.080529 25.008 29.781 31.806
617 3 20 0.068977 27.815 30.963 34.795
618 3 20 0.068977 26.132 30.991 35.207
619 3 20 0.063577 27.505 28.252 34.499
620 3 20 0.063577 27.806 29.014 36.021
621 3 20 0.10265 26.255 28.968 37.620
622 3 20 0.10265 25.149 29.982 36.933
623 3 20 0.108525 24.282 28.231 38.670
624 3 20 0.108525 24.543 27.004 37.388
625 3 1 0.758167 22.428 29.692 37.509
626 3 61 -0.584437 22.832 30.319 38.469
627 3 5 -0.006456 21.424 30.192 36.447
628 3 26 -0.085676 21.471 35.500 32.362
629 3 26 0.002565 21.315 31.272 36.573
630 3 26 0.110917 16.012 35.998 34.825
631 3 26 -0.085676 20.544 34.085 32.346
632 3 26 -0.02174 16.257 30.640 34.283
633 3 26 0.002565 21.819 30.059 35.472
634 4 5 -0.064834 9.802 30.337 5.327
635 4 1 0.222095 10.281 30.371 3.895
636 4 61 -0.421224 9.650 29.848 3.025
637 4 50 -0.199073 11.539 30.951 3.593
638 4 27 0.175403 12.049 31.309 4.416
639 4 5 0.184261 12.066 31.596 2.338
640 4 5 -0.100266 12.963 30.497 1.673
641 4 5 -0.100266 12.855 32.853 2.777
642 4 5 0.048604 11.074 32.072 1.238
643 4 79 1.067957 9.897 33.339 1.614
644 4 61 -0.67072 9.114 33.285 0.377
645 4 61 -0.67072 10.664 34.524 1.822
646 4 61 -0.67072 9.276 32.837 2.818
647 4 26 0.016092 13.889 30.360 2.179
648 4 26 0.016092 13.247 30.880 0.723
649 4 26 0.016092 12.573 29.505 1.347
650 4 26 0.016092 12.235 33.554 3.325
651 4 26 0.016092 13.213 33.411 1.948
652 4 26 0.016092 13.760 32.638 3.391
653 4 20 0.009122 10.505 31.227 0.844
654 4 20 0.009122 11.581 32.387 0.287
655 4 26 0.110917 10.252 31.161 5.836
656 4 5 -0.011873 9.988 28.966 5.975
657 4 1 0.615339 9.111 27.885 5.282
658 4 61 -0.561397 9.588 26.840 4.812
659 4 63 -0.237444 7.809 28.110 5.486
660 4 5 -0.084855 6.826 27.284 4.917
661 4 5 0.13222 6.819 27.509 3.370
662 4 63 -0.455502 5.569 27.098 2.694
663 4 5 0.114684 4.365 27.941 2.753
664 4 5 0.021605 4.382 29.009 1.669
665 4 63 -0.293251 4.902 30.101 2.437
666 4 5 -0.032933 5.148 31.359 1.719
667 4 5 0.124764 5.961 32.214 2.705
668 4 63 -0.408629 5.247 32.716 3.941
669 4 5 0.12378 4.283 33.765 3.925
670 4 5 0.151903 4.969 35.094 3.798
671 4 63 -0.326818 6.077 35.239 4.731
672 4 20 0.114474 6.789 26.232 5.240
673 4 20 0.114474 5.833 27.593 5.324
674 4 20 0.076629 7.098 28.555 3.164
675 4 20 0.076629 7.650 26.883 2.931
676 4 20 0.048212 3.484 27.344 2.771
677 4 20 0.048212 4.291 28.421 3.754
678 4 20 0.054681 5.034 28.765 0.813
679 4 20 0.054681 3.380 29.256 1.259
680 4 20 0.058887 5.722 31.158 0.788
681 4 20 0.058887 4.222 31.898 1.489
682 4 20 0.087894 6.771 31.680 3.070
683 4 20 0.087894 6.285 33.113 2.076
684 4 20 0.02648 3.550 33.653 3.031
685 4 20 0.02648 3.645 33.733 4.828
686 4 20 0.036537 4.233 35.922 3.976
687 4 20 0.036537 5.438 35.168 2.772
688 4 1 0.727713 5.678 35.362 5.998
689 4 61 -0.576378 4.534 35.485 6.330
690 4 5 -0.020814 6.837 35.227 6.975
691 4 26 0.067554 10.979 28.718 5.601
692 4 26 -0.02174 7.515 34.481 6.484
693 4 5 -0.024924 10.020 29.000 7.576
694 4 1 0.470545 8.559 28.972 8.150
695 4 61 -0.510544 8.014 28.074 8.824
696 4 63 -0.240725 7.979 30.191 7.919
697 4 5 -0.013005 6.570 30.348 8.139
698 4 5 0.119773 6.015 31.757 7.815
699 4 63 -0.420621 4.578 31.820 8.210
700 4 5 0.099176 4.241 31.914 9.594
701 4 5 0.161534 4.342 33.440 9.938
702 4 63 -0.458288 4.053 33.545 11.326
703 4 5 0.05472 4.286 34.796 11.864
704 4 5 0.076753 3.183 35.836 11.437
705 4 63 -0.389014 3.605 36.607 10.310
706 4 5 0.064058 4.337 37.867 10.635
707 4 5 -0.090567 5.043 38.294 9.306
708 4 63 -0.173198 6.059 37.433 8.810
709 4 20 0.101034 6.029 29.567 7.509
710 4 20 0.101034 6.362 30.209 9.213
711 4 20 0.049284 6.547 32.428 8.488
712 4 20 0.049284 6.099 32.056 6.747
713 4 20 0.046057 3.236 31.465 9.784
714 4 20 0.046057 4.999 31.375 10.148
715 4 20 0.088904 5.307 33.860 9.671
716 4 20 0.088904 3.591 34.014 9.405
717 4 20 0.069914 4.318 34.657 12.925
718 4 20 0.069914 5.292 35.229 11.528
719 4 20 0.06545 2.193 35.309 11.211
720 4 20 0.06545 3.003 36.564 12.252
721 4 20 0.050458 3.652 38.603 11.006
722 4 20 0.050458 5.109 37.642 11.428
723 4 20 0.129934 5.360 39.316 9.404
724 4 20 0.129934 4.275 38.275 8.530
725 4 1 0.480209 6.677 37.709 7.665
726 4 61 -0.503245 6.350 38.645 7.000
727 4 5 0.005732 7.627 36.598 7.188
728 4 26 0.086901 10.321 28.012 7.883
729 4 26 0.055053 8.039 36.853 6.163
730 4 5 -0.061618 10.957 30.179 8.183
731 4 1 0.006984 12.315 30.217 7.482
732 4 61 -0.316241 12.743 31.243 6.968
733 4 63 -0.165503 12.932 29.026 7.609
734 4 5 0.105106 14.109 28.735 6.726
735 4 5 0.117578 15.439 29.278 7.352
736 4 63 -0.320653 15.699 30.691 7.028
737 4 5 0.063637 16.049 31.028 5.680
738 4 5 0.029282 16.228 32.485 5.355
739 4 63 -0.194674 15.199 33.235 6.057