LAMMPS Description

4179  atoms
3258  bonds
4104  angles
4374  dihedrals
0  impropers

87  atom types
840  bond types
4614  angle types
985  dihedral types
38  improper types

-0.5 40.5 xlo xhi
-0.5 40.5 ylo yhi
-0.5 40.5 zlo zhi

Masses

1 12.01
2 12.01
3 12.01
4 12.01
5 12.01
6 12.01
7 12.01
8 12.01
9 12.01
10 12.01
11 12.01
12 12.01
13 12.01
14 12.01
15 12.01
16 12.01
17 12.01
18 12.01
19 12.01
20 1.008
21 1.008
22 1.008
23 1.008
24 1.008
25 1.008
26 1.008
27 1.008
28 1.008
29 1.008
30 1.008
31 1.008
32 1.008
33 19.00
34 35.45
35 79.90
36 126.9
37 14.01
38 14.01
39 14.01
40 14.01
41 14.01
42 14.01
43 14.01
44 14.01
45 14.01
46 14.01
47 14.01
48 14.01
49 14.01
50 14.01
51 14.01
52 14.01
53 14.01
54 14.01
55 14.01
56 14.01
57 14.01
58 14.01
59 14.01
60 14.01
61 16.00
62 16.00
63 16.00
64 16.00
65 30.97
66 30.97
67 30.97
68 30.97
69 30.97
70 30.97
71 30.97
72 30.97
73 30.97
74 30.97
75 30.97
76 32.06
77 32.06
78 32.06
79 32.06
80 32.06
81 32.06
82 32.06
83 32.06
84 24.305
85 40.08
86 19.02
87 35.45

Atoms

1 1 5 0.23943 15.240495 23.423675 19.334233
2 1 63 -0.107446 15.986742 24.381847 18.582627
3 1 5 0.096748 15.745975 23.260582 20.784981
4 1 33 -0.083444 13.901177 23.781354 19.363985
5 1 33 -0.076564 17.094375 22.943822 20.751548
6 1 33 -0.076564 15.062221 22.161628 21.282416
7 1 5 0.239938 15.781286 24.188449 17.179320
8 1 5 0.031579 16.311609 25.389590 16.358178
9 1 33 -0.098346 14.426503 24.039192 16.902899
10 1 33 -0.098346 16.461481 23.051533 16.762654
11 1 5 0.417302 16.003634 25.192535 14.845075
12 1 63 -0.075238 17.722617 25.458294 16.540042
13 1 33 -0.094088 15.651458 26.526039 16.816851
14 1 33 -0.120596 16.608423 24.041670 14.369920
15 1 33 -0.120596 16.468655 26.255455 14.097514
16 1 33 -0.120596 14.640495 25.098197 14.627167
17 1 5 0.258717 18.251255 26.772050 16.645986
18 1 5 0.054096 19.754961 26.726544 16.344036
19 1 33 -0.09756 18.068017 27.236551 17.937497
20 1 33 -0.09756 17.665110 27.664214 15.760064
21 1 33 -0.120109 20.384637 25.896971 17.254476
22 1 33 -0.120109 20.286392 27.998494 16.462997
23 1 79 1.069374 20.100721 26.106705 14.656882
24 1 61 -0.610284 19.567046 24.478738 14.542754
25 1 61 -0.610284 21.797632 26.205045 14.415946
26 1 61 -0.610284 19.285661 27.095298 13.512856
27 1 5 0.244615 15.511868 24.472162 21.748161
28 1 33 -0.110109 16.281147 25.549037 21.341093
29 1 5 0.166751 15.856172 24.084050 23.223079
30 1 33 -0.110109 14.176956 24.837314 21.696884
31 1 33 -0.087619 17.189832 23.712880 23.287479
32 1 33 -0.087619 15.084557 22.981564 23.549758
33 1 5 0.133435 15.592406 25.190666 24.299873
34 1 33 -0.056543 16.448253 26.252594 24.076175
35 1 5 0.043406 15.773123 24.614151 25.748313
36 1 33 -0.056543 14.290635 25.648312 24.178989
37 1 33 -0.026439 17.037317 24.055639 25.858748
38 1 33 -0.026439 14.848502 23.591074 25.865845
39 1 5 -0.042189 15.601723 25.638739 26.939035
40 1 63 -0.05899 16.662229 26.585782 26.742774
41 1 5 0.198119 15.431773 24.799872 28.303413
42 1 33 -0.033517 14.408866 26.320484 26.763008
43 1 33 -0.070849 16.503099 23.936459 28.465007
44 1 33 -0.070849 14.317820 24.007756 28.085930
45 1 5 0.047327 17.485174 26.978139 27.817741
46 1 5 0.014492 18.683248 27.797598 27.285691
47 1 33 -0.023915 18.009977 25.888303 28.488330
48 1 33 -0.023915 16.772168 27.814013 28.659523
49 1 5 0.258874 19.544878 27.013580 26.272416
50 1 63 -0.046319 19.509903 28.114974 28.403108
51 1 33 -0.052305 18.171366 28.920388 26.637324
52 1 33 -0.07104 20.057198 25.864415 26.848312
53 1 33 -0.07104 20.602202 27.800025 25.853856
54 1 33 -0.07104 18.806271 26.664524 25.159559
55 1 5 0.242379 19.782588 29.492660 28.573580
56 1 5 0.030285 20.784197 29.653654 29.723304
57 1 33 -0.097617 18.619865 30.169573 28.909013
58 1 33 -0.097617 20.332004 30.045475 27.425703
59 1 33 -0.112266 20.243610 29.129603 30.884594
60 1 33 -0.112266 21.045849 30.997116 29.923721
61 1 79 1.088381 22.361843 28.797219 29.376228
62 1 61 -0.614813 22.068581 27.114420 29.193151
63 1 61 -0.614813 23.420014 29.039820 30.705716
64 1 61 -0.614813 23.063618 29.445028 27.948007
65 1 5 0.224162 15.129043 25.499396 29.688209
66 1 33 -0.097154 16.262367 26.075412 30.215091
67 1 5 0.152641 14.605792 24.467442 30.750514
68 1 33 -0.097154 14.165043 26.477026 29.509644
69 1 33 -0.114533 15.519478 23.428459 30.839979
70 1 33 -0.114533 13.401964 23.954224 30.293043
71 1 5 0.169008 14.373596 25.035014 32.192175
72 1 63 -0.058703 15.634233 25.523783 32.661726
73 1 5 0.283965 13.754361 23.902251 33.090393
74 1 33 -0.097241 13.467763 26.081450 32.104707
75 1 33 -0.09168 14.649027 22.857042 33.240667
76 1 33 -0.09168 12.591272 23.404752 32.530334
77 1 5 0.211916 15.691375 25.900657 34.030938
78 1 5 0.001658 16.891555 26.838925 34.288369
79 1 33 -0.094681 15.858335 24.770359 34.816899
80 1 33 -0.094681 14.548426 26.584551 34.422846
81 1 5 0.294487 18.230767 26.240589 33.814916
82 1 63 -0.046447 16.986729 27.036012 35.697374
83 1 33 -0.068202 16.688579 28.017349 33.572959
84 1 33 -0.089747 18.488099 25.043274 34.459145
85 1 33 -0.089747 19.255144 27.124324 34.105293
86 1 33 -0.089747 18.220030 26.024590 32.448410
87 1 5 0.23616 16.754774 28.359548 36.138634
88 1 5 0.049903 16.794351 28.378602 37.672544
89 1 33 -0.095009 15.499802 28.796291 35.740236
90 1 33 -0.095009 17.728796 29.216126 35.648964
91 1 33 -0.119297 15.820007 27.530214 38.169452
92 1 33 -0.119297 16.533377 29.660167 38.123443
93 1 79 1.089277 18.417605 27.853676 38.332604
94 1 61 -0.616384 18.952389 26.418433 37.554536
95 1 61 -0.616384 18.236538 27.538395 40.010326
96 1 61 -0.616384 19.553118 29.121030 38.099465
97 1 33 -0.083444 15.341121 22.157969 18.762878
98 1 33 -0.09168 13.398206 24.362896 34.343571
99 2 5 0.23943 28.467419 18.505979 38.395029
100 2 63 -0.107446 27.560637 19.550403 38.038917
101 2 5 0.096748 27.756874 17.206820 38.835586
102 2 33 -0.083444 29.304782 18.218879 37.327796
103 2 33 -0.076564 26.890601 17.505910 39.874697
104 2 33 -0.076564 28.764817 16.399218 39.340055
105 2 5 0.239938 28.222775 20.819210 38.063212
106 2 5 0.031579 27.368354 21.917344 37.383269
107 2 33 -0.098346 29.441244 20.743948 37.397035
108 2 33 -0.098346 28.443697 21.202699 39.379639
109 2 5 0.417302 28.143367 23.266940 37.350026
110 2 63 -0.075238 26.177516 22.084078 38.146711
111 2 33 -0.094088 27.120260 21.498162 36.079264
112 2 33 -0.120596 28.447354 23.686738 38.633535
113 2 33 -0.120596 27.396474 24.257776 36.745638
114 2 33 -0.120596 29.321269 23.142054 36.634845
115 2 5 0.258717 25.001390 22.309439 37.383443
116 2 5 0.054096 23.937728 22.944586 38.288753
117 2 33 -0.09756 24.522624 21.098767 36.911852
118 2 33 -0.09756 25.209232 23.160332 36.307728
119 2 33 -0.120109 23.654069 22.090041 39.338931
120 2 33 -0.120109 22.779119 23.151643 37.561305
121 2 79 1.069374 24.487397 24.549050 38.977085
122 2 61 -0.610284 25.845240 24.281774 39.993420
123 2 61 -0.610284 23.175460 25.193159 39.877736
124 2 61 -0.610284 24.892494 25.608934 37.687519
125 2 5 0.244615 26.992691 16.414882 37.722344
126 2 33 -0.110109 25.904961 17.152380 37.286342
127 2 5 0.166751 26.526853 15.019958 38.253136
128 2 33 -0.110109 27.845176 16.207739 36.650749
129 2 33 -0.087619 25.675024 15.213283 39.329043
130 2 33 -0.087619 27.653265 14.355108 38.707839
131 2 5 0.133435 25.812567 14.095794 37.209405
132 2 33 -0.056543 24.614160 14.675273 36.837610
133 2 5 0.043406 25.587080 12.658812 37.798682
134 2 33 -0.056543 26.607054 13.977528 36.080927
135 2 33 -0.026439 24.881192 12.762704 38.987482
136 2 33 -0.026439 26.847261 12.171122 38.097886
137 2 5 -0.042189 24.814539 11.634264 36.876479
138 2 63 -0.05899 23.512841 12.217604 36.717174
139 2 5 0.198119 25.032896 10.155217 37.475518
140 2 33 -0.033517 25.414319 11.629101 35.627916
141 2 33 -0.070849 24.633497 10.117659 38.801565
142 2 33 -0.070849 26.405877 9.980413 37.473387
143 2 5 0.047327 22.349696 11.439400 36.885191
144 2 5 0.014492 21.106084 12.357530 36.906159
145 2 33 -0.023915 22.360558 10.750234 38.084266
146 2 33 -0.023915 22.203240 10.593652 35.799410
147 2 5 0.258874 21.155679 13.410722 38.034053
148 2 63 -0.046319 19.970009 11.527859 37.137863
149 2 33 -0.052305 21.060494 13.033492 35.687939
150 2 33 -0.07104 21.235990 12.800340 39.273284
151 2 33 -0.07104 20.008533 14.181837 38.001525
152 2 33 -0.07104 22.239437 14.251750 37.879230
153 2 5 0.242379 18.939871 11.641193 36.174843
154 2 5 0.030285 17.745501 10.797330 36.635694
155 2 33 -0.097617 19.375319 11.151457 34.952880
156 2 33 -0.097617 18.524316 12.957137 36.031000
157 2 33 -0.112266 18.134334 9.475030 36.761348
158 2 33 -0.112266 16.734688 10.874045 35.694477
159 2 79 1.088381 17.089693 11.367714 38.244261
160 2 61 -0.614813 18.309839 11.214472 39.443884
161 2 61 -0.614813 15.755155 10.377192 38.673207
162 2 61 -0.614813 16.580812 13.003119 38.108433
163 2 5 0.224162 24.489969 8.863356 36.744105
164 2 33 -0.097154 23.135749 8.712327 36.936717
165 2 5 0.152641 25.176711 7.561579 37.292716
166 2 33 -0.097154 24.746560 8.960015 35.386990
167 2 33 -0.114533 25.018661 7.529157 38.669771
168 2 33 -0.114533 26.531418 7.639177 37.008779
169 2 5 0.169008 24.636466 6.211264 36.710287
170 2 63 -0.058703 23.247678 6.131604 37.047188
171 2 5 0.283965 25.500476 5.028891 37.283768
172 2 33 -0.097241 24.783662 6.244761 35.331728
173 2 33 -0.09168 25.343689 4.932687 38.655495
174 2 33 -0.09168 26.843388 5.216928 37.009584
175 2 5 0.211916 22.608409 4.889138 36.787083
176 2 5 0.001658 21.075284 5.068409 36.720475
177 2 33 -0.094681 22.888834 3.999126 37.812962
178 2 33 -0.094681 23.008678 4.350911 35.571463
179 2 5 0.294487 20.496907 5.744124 37.979262
180 2 63 -0.046447 20.495574 3.768860 36.629331
181 2 33 -0.068202 20.776301 5.889710 35.635225
182 2 33 -0.089747 20.783982 5.000956 39.110678
183 2 33 -0.089747 19.122227 5.842143 37.855563
184 2 33 -0.089747 21.009343 7.019744 38.135175
185 2 5 0.23616 19.813624 3.495666 35.420790
186 2 5 0.049903 19.341700 2.035677 35.443791
187 2 33 -0.095009 20.661121 3.651485 34.333641
188 2 33 -0.095009 18.712286 4.326356 35.282116
189 2 33 -0.119297 20.436685 1.199232 35.575678
190 2 33 -0.119297 18.703140 1.739941 34.252738
191 2 79 1.089277 18.182556 1.701388 36.818859
192 2 61 -0.616384 18.785007 2.351534 38.290481
193 2 61 -0.616384 18.029244 -0.000037 36.987943
194 2 61 -0.616384 16.653757 2.387232 36.441601
195 2 33 -0.083444 29.256088 18.882203 39.479022
196 2 33 -0.09168 25.169599 3.813894 36.714738
197 3 5 0.23943 14.916361 32.565095 5.412749
198 3 63 -0.107446 15.830605 33.656496 5.299208
199 3 5 0.096748 15.069443 31.777577 6.733036
200 3 33 -0.083444 13.612065 33.025187 5.314152
201 3 33 -0.076564 16.384033 31.355159 6.847288
202 3 33 -0.076564 14.272787 30.653653 6.575574
203 3 5 0.239938 15.953059 34.067998 3.933719
204 3 5 0.031579 16.677002 35.431902 3.815697
205 3 33 -0.098346 14.697135 34.192269 3.349480
206 3 33 -0.098346 16.694322 33.127737 3.229952
207 3 5 0.417302 16.725126 35.895516 2.330468
208 3 63 -0.075238 18.008328 35.266301 4.294118
209 3 33 -0.094088 15.945494 36.352634 4.560575
210 3 33 -0.120596 17.406390 34.974390 1.553655
211 3 33 -0.120596 17.366449 37.111353 2.206631
212 3 33 -0.120596 15.448332 36.047071 1.819234
213 3 5 0.258717 18.517486 36.359659 5.043762
214 3 5 0.054096 20.049386 36.274783 5.065056
215 3 33 -0.09756 18.046893 36.282196 6.343716
216 3 33 -0.09756 18.165895 37.591347 4.511120
217 3 33 -0.120109 20.438567 35.085336 5.654410
218 3 33 -0.120109 20.557624 37.324600 5.809371
219 3 79 1.069374 20.767428 36.352445 3.383204
220 3 61 -0.610284 20.250599 34.977364 2.494301
221 3 61 -0.610284 22.475252 36.352547 3.558029
222 3 61 -0.610284 20.254417 37.800764 2.615331
223 3 5 0.244615 14.636549 32.516809 8.043222
224 3 33 -0.110109 15.495126 33.574915 8.289014
225 3 5 0.166751 14.623917 31.532744 9.258136
226 3 33 -0.110109 13.355426 33.015818 7.876880
227 3 33 -0.087619 15.900693 31.023124 9.433336
228 3 33 -0.087619 13.781317 30.483969 8.929994
229 3 5 0.133435 14.134290 32.134114 10.619120
230 3 33 -0.056543 15.034357 33.095342 11.038794
231 3 5 0.043406 13.965878 31.007428 11.698574
232 3 33 -0.056543 12.902905 32.741560 10.436468
233 3 33 -0.026439 15.161636 30.316639 11.822235
234 3 33 -0.026439 13.024095 30.131782 11.186997
235 3 5 -0.042189 13.538475 31.478262 13.145163
236 3 63 -0.05899 14.629543 32.301575 13.583122
237 3 5 0.198119 13.044561 30.185451 13.969053
238 3 33 -0.033517 12.429134 32.299619 13.029377
239 3 33 -0.070849 14.036338 29.218131 13.971460
240 3 33 -0.070849 11.999680 29.675310 13.218310
241 3 5 0.047327 15.186740 32.135260 14.867104
242 3 5 0.014492 16.487528 32.962649 14.982639
243 3 33 -0.023915 15.525624 30.817304 15.114085
244 3 33 -0.023915 14.310584 32.634443 15.815168
245 3 5 0.258874 17.548754 32.563296 13.934720
246 3 63 -0.046319 17.037384 32.710697 16.273719
247 3 33 -0.052305 16.156552 34.300195 14.771720
248 3 33 -0.07104 17.896558 31.230896 14.070552
249 3 33 -0.07104 18.685852 33.330457 14.108206
250 3 33 -0.07104 17.083013 32.774958 12.652490
251 3 5 0.242379 17.283581 33.864280 17.054788
252 3 5 0.030285 17.993800 33.437999 18.345091
253 3 33 -0.097617 16.084966 34.472114 17.396125
254 3 33 -0.097617 18.092175 34.768342 16.381043
255 3 33 -0.112266 17.191114 32.553712 19.044512
256 3 33 -0.112266 18.221819 34.549637 19.136157
257 3 79 1.088381 19.596029 32.626155 18.003507
258 3 61 -0.614813 19.328205 31.202600 17.079875
259 3 61 -0.614813 20.320822 32.195493 19.498607
260 3 61 -0.614813 20.619189 33.712648 17.152251
261 3 5 0.224162 12.439619 30.297164 15.425145
262 3 33 -0.097154 13.428439 30.484265 16.363787
263 3 5 0.152641 11.669186 28.989200 15.828726
264 3 33 -0.097154 11.557864 31.363340 15.477281
265 3 33 -0.114533 12.521737 27.908641 15.661809
266 3 33 -0.114533 10.596637 28.838977 14.963310
267 3 5 0.169008 11.117713 28.950363 17.294608
268 3 63 -0.058703 12.242356 29.067270 18.172155
269 3 5 0.283965 10.290443 27.627346 17.491204
270 3 33 -0.097241 10.272449 30.036031 17.468008
271 3 33 -0.09168 11.110311 26.518744 17.371654
272 3 33 -0.09168 9.281525 27.528221 16.549819
273 3 5 0.211916 11.986268 28.852518 19.553583
274 3 5 0.001658 13.107935 29.469950 20.418273
275 3 33 -0.094681 11.949754 27.490632 19.812654
276 3 33 -0.094681 10.793904 29.441799 19.951893
277 3 5 0.294487 14.511365 28.969703 20.023567
278 3 63 -0.046447 12.876948 29.071610 21.767780
279 3 33 -0.068202 13.093783 30.851136 20.234376
280 3 33 -0.089747 14.594599 27.594028 20.147672
281 3 33 -0.089747 15.453588 29.543609 20.858732
282 3 33 -0.089747 14.814352 29.324485 18.721094
283 3 5 0.23616 12.568747 30.122391 22.662841
284 3 5 0.049903 12.252096 29.518083 24.037378
285 3 33 -0.095009 11.446876 30.817381 22.235273
286 3 33 -0.095009 13.642339 30.991050 22.785538
287 3 33 -0.119297 11.176637 28.653989 23.924439
288 3 33 -0.119297 11.912812 30.530024 24.917541
289 3 79 1.089277 13.670243 28.597230 24.735281
290 3 61 -0.616384 14.349381 27.547229 23.557326
291 3 61 -0.616384 13.100687 27.655403 26.052668
292 3 61 -0.616384 14.847571 29.718266 25.289452
293 3 33 -0.083444 15.127825 31.633640 4.399705
294 3 33 -0.09168 9.660485 27.580782 18.720219
295 4 5 0.23943 20.949053 18.886097 15.827815
296 4 63 -0.107446 20.296520 17.844735 16.555591
297 4 5 0.096748 21.580507 19.962119 16.738979
298 4 33 -0.083444 21.937011 18.351211 15.015148
299 4 33 -0.076564 20.598709 20.464488 17.577629
300 4 33 -0.076564 21.967850 20.978789 15.879323
301 4 5 0.239938 19.383901 17.137590 15.709447
302 4 5 0.031579 18.904376 15.820825 16.368568
303 4 33 -0.098346 19.990541 16.820143 14.498935
304 4 33 -0.098346 18.266969 17.927087 15.468599
305 4 5 0.417302 17.978695 15.031848 15.397079
306 4 63 -0.075238 18.168437 16.157931 17.540529
307 4 33 -0.094088 20.037696 15.060229 16.642018
308 4 33 -0.120596 16.863636 15.782996 15.067757
309 4 33 -0.120596 17.542529 13.853558 15.968290
310 4 33 -0.120596 18.650529 14.703588 14.232856
311 4 5 0.258717 18.372805 15.292487 18.647724
312 4 5 0.054096 17.202755 15.456258 19.626773
313 4 33 -0.09756 19.547551 15.642536 19.291756
314 4 33 -0.09756 18.440765 13.955500 18.284096
315 4 33 -0.120109 17.146516 16.767069 20.065175
316 4 33 -0.120109 17.399668 14.631871 20.720408
317 4 79 1.069374 15.596713 15.030744 18.858784
318 4 61 -0.610284 15.279112 16.137709 17.585258
319 4 61 -0.610284 14.398317 15.155904 20.081653
320 4 61 -0.610284 15.663387 13.421168 18.262749
321 4 5 0.244615 22.822681 19.522524 17.584088
322 4 33 -0.110109 22.436527 18.593184 18.535071
323 4 5 0.166751 23.492854 20.757165 18.270449
324 4 33 -0.110109 23.754292 18.935424 16.744227
325 4 33 -0.087619 22.569012 21.356396 19.111877
326 4 33 -0.087619 23.815681 21.659340 17.270727
327 4 5 0.133435 24.795489 20.460403 19.088210
328 4 33 -0.056543 24.476901 19.667192 20.174268
329 4 5 0.043406 25.483661 21.794837 19.545060
330 4 33 -0.056543 25.690587 19.766635 18.290622
331 4 33 -0.026439 24.569375 22.554311 20.258922
332 4 33 -0.026439 25.785487 22.481695 18.382068
333 4 5 -0.042189 26.778409 21.647705 20.438904
334 4 63 -0.05899 26.309818 21.002272 21.632186
335 4 5 0.198119 27.536087 23.068763 20.463866
336 4 33 -0.033517 27.645804 20.767428 19.813278
337 4 33 -0.070849 26.671003 24.059052 20.900090
338 4 33 -0.070849 27.805812 23.340324 19.133777
339 4 5 0.047327 26.676891 21.486273 22.904089
340 4 5 0.014492 25.843982 20.773370 23.994044
341 4 33 -0.023915 26.428425 22.840951 23.030420
342 4 33 -0.023915 28.003275 21.174844 23.147768
343 4 5 0.258874 24.323543 20.974077 23.815722
344 4 63 -0.046319 26.211752 21.341876 25.248737
345 4 33 -0.052305 26.111360 19.408315 23.903511
346 4 33 -0.07104 23.996319 22.317744 23.862564
347 4 33 -0.07104 23.646144 20.324852 24.831231
348 4 33 -0.07104 23.892466 20.450960 22.613079
349 4 5 0.242379 26.644189 20.411988 26.223285
350 4 5 0.030285 26.869371 21.157769 27.543933
351 4 33 -0.097617 27.845772 19.839681 25.834295
352 4 33 -0.097617 25.697549 19.418948 26.430241
353 4 33 -0.112266 27.829906 22.137771 27.363850
354 4 33 -0.112266 27.317452 20.270041 28.505535
355 4 79 1.088381 25.335821 21.948453 28.148873
356 4 61 -0.614813 24.800053 23.106985 26.999052
357 4 61 -0.614813 25.678940 22.746201 29.629409
358 4 61 -0.614813 24.132467 20.748057 28.399769
359 4 5 0.224162 28.933421 23.264043 21.176581
360 4 33 -0.097154 28.790022 23.346802 22.542747
361 4 5 0.152641 29.635426 24.589622 20.710487
362 4 33 -0.097154 29.759564 22.195658 20.871647
363 4 33 -0.114533 28.757457 25.644201 20.908848
364 4 33 -0.114533 29.893393 24.483639 19.352513
365 4 5 0.169008 30.981408 24.936157 21.433457
366 4 63 -0.058703 30.687521 25.079906 22.826851
367 4 5 0.283965 31.594349 26.226052 20.774765
368 4 33 -0.097241 31.858456 23.878463 21.245616
369 4 33 -0.09168 30.768318 27.317125 20.981415
370 4 33 -0.09168 31.761096 26.056143 19.411947
371 4 5 0.211916 31.734301 25.592793 23.640018
372 4 5 0.001658 31.489626 25.246908 25.125799
373 4 33 -0.094681 31.776391 26.974230 23.525806
374 4 33 -0.094681 32.965102 25.051903 23.293318
375 4 5 0.294487 30.109121 25.712603 25.628778
376 4 63 -0.046447 32.476770 25.932181 25.893357
377 4 33 -0.068202 31.536061 23.861429 25.267170
378 4 33 -0.089747 29.972505 27.082453 25.488563
379 4 33 -0.089747 29.978516 25.393307 26.968795
380 4 33 -0.089747 29.091759 25.084050 24.933075
381 4 5 0.23616 33.394967 25.100730 26.575900
382 4 5 0.049903 34.440951 25.987686 27.264403
383 4 33 -0.095009 34.060781 24.271139 25.685456
384 4 33 -0.095009 32.745274 24.338025 27.534234
385 4 33 -0.119297 35.098752 26.748099 26.313038
386 4 33 -0.119297 35.369272 25.189022 27.907971
387 4 79 1.089277 33.694254 27.113616 28.497653
388 4 61 -0.616384 32.312819 27.897908 27.843565
389 4 61 -0.616384 34.860792 28.302938 28.911952
390 4 61 -0.616384 33.265834 26.209741 29.893861
391 4 33 -0.083444 20.043476 19.569668 15.020818
392 4 33 -0.09168 32.849758 26.521845 21.270695
393 5 5 0.23943 26.678302 15.057676 1.607335
394 5 63 -0.107446 26.874353 13.689384 1.966827
395 5 5 0.096748 25.248721 15.355808 1.103157
396 5 33 -0.083444 26.951197 15.877924 2.691453
397 5 33 -0.076564 24.965064 14.505623 0.046577
398 5 33 -0.076564 25.305272 16.649066 0.606223
399 5 5 0.239938 28.270491 13.375863 2.004104
400 5 5 0.031579 28.526707 12.011499 2.690486
401 5 33 -0.098346 28.968837 14.352050 2.706596
402 5 33 -0.098346 28.764823 13.302546 0.708299
403 5 5 0.417302 30.054684 11.731760 2.791448
404 5 63 -0.075238 27.920349 10.997762 1.894617
405 5 33 -0.094088 27.988179 12.087165 3.971875
406 5 33 -0.120596 30.628802 11.698288 1.532360
407 5 33 -0.120596 30.301779 10.519105 3.402432
408 5 33 -0.120596 30.686800 12.708803 3.540012
409 5 5 0.258717 27.299462 9.950916 2.626226
410 5 5 0.054096 27.138886 8.732453 1.707565
411 5 33 -0.09756 26.045790 10.365023 3.043552
412 5 33 -0.09756 28.034252 9.555652 3.734481
413 5 33 -0.120109 26.351268 9.072072 0.622254
414 5 33 -0.120109 26.516944 7.710954 2.403376
415 5 79 1.069374 28.748488 8.119148 1.088472
416 5 61 -0.610284 29.465977 9.332892 0.108601
417 5 61 -0.610284 28.434433 6.705295 0.166725
418 5 61 -0.610284 29.760305 7.738659 2.423347
419 5 5 0.244615 24.101573 15.278877 2.165504
420 5 33 -0.110109 23.943166 13.970249 2.589243
421 5 5 0.166751 22.760797 15.826085 1.576060
422 5 33 -0.110109 24.445027 16.059028 3.256998
423 5 33 -0.087619 22.407417 15.055375 0.479842
424 5 33 -0.087619 23.000418 17.117424 1.137188
425 5 5 0.133435 21.548073 15.872925 2.566395
426 5 33 -0.056543 21.200622 14.582085 2.917417
427 5 5 0.043406 20.332840 16.631069 1.924964
428 5 33 -0.056543 21.919374 16.551162 3.715653
429 5 33 -0.026439 20.010424 16.030025 0.717856
430 5 33 -0.026439 20.786889 17.909507 1.651361
431 5 5 -0.042189 19.011432 16.698760 2.788837
432 5 63 -0.05899 18.609885 15.327457 2.924369
433 5 5 0.198119 18.050770 17.823026 2.150666
434 5 33 -0.033517 19.338056 17.154779 4.055342
435 5 33 -0.070849 17.824262 17.547930 0.811880
436 5 33 -0.070849 18.802711 18.984293 2.191635
437 5 5 0.047327 17.273627 14.942456 2.694310
438 5 5 0.014492 17.173087 13.400110 2.662225
439 5 33 -0.023915 16.808822 15.400824 1.475006
440 5 33 -0.023915 16.485019 15.372084 3.747485
441 5 5 0.258874 18.059399 12.762757 1.570414
442 5 63 -0.046319 15.817887 13.069282 2.367789
443 5 33 -0.052305 17.604563 12.923667 3.899114
444 5 33 -0.07104 17.701296 13.223458 0.315733
445 5 33 -0.07104 17.906493 11.388767 1.590236
446 5 33 -0.07104 19.392989 13.046629 1.786715
447 5 5 0.242379 15.196678 12.205396 3.300119
448 5 5 0.030285 13.803375 11.840192 2.774438
449 5 33 -0.097617 15.048817 12.848920 4.519407
450 5 33 -0.097617 15.926229 11.037797 3.472025
451 5 33 -0.112266 13.050924 12.991415 2.619637
452 5 33 -0.112266 13.167672 11.014800 3.684451
453 5 79 1.088381 13.888070 10.977973 1.164371
454 5 61 -0.614813 14.612017 12.013722 0.000559
455 5 61 -0.614813 12.291045 10.600295 0.661392
456 5 61 -0.614813 14.801532 9.532875 1.335364
457 5 5 0.224162 16.682078 18.239456 2.822906
458 5 33 -0.097154 15.702216 17.303706 2.581946
459 5 5 0.152641 16.156446 19.606709 2.255858
460 5 33 -0.097154 16.860184 18.367211 4.189983
461 5 33 -0.114533 16.091794 19.512810 0.874078
462 5 33 -0.114533 17.076485 20.589856 2.585740
463 5 5 0.169008 14.751594 20.063564 2.777504
464 5 63 -0.058703 13.810388 19.055950 2.393544
465 5 5 0.283965 14.432498 21.489189 2.195118
466 5 33 -0.097241 14.809999 20.148475 4.160469
467 5 33 -0.09168 14.319758 21.437413 0.816683
468 5 33 -0.09168 15.429630 22.392062 2.518372
469 5 5 0.211916 12.438475 19.368925 2.593407
470 5 5 0.001658 11.583574 18.082194 2.616074
471 5 33 -0.094681 11.986469 20.162075 1.549479
472 5 33 -0.094681 12.231217 20.016921 3.803688
473 5 5 0.294487 11.782815 17.209604 1.361265
474 5 63 -0.046447 10.214126 18.478223 2.647268
475 5 33 -0.068202 11.968515 17.318984 3.716539
476 5 33 -0.089747 11.451885 17.913469 0.216768
477 5 33 -0.089747 10.965528 16.096082 1.443512
478 5 33 -0.089747 13.093539 16.777930 1.262436
479 5 5 0.23616 9.511496 18.128742 3.823888
480 5 5 0.049903 8.094289 18.711154 3.739461
481 5 33 -0.095009 10.127958 18.670661 4.942244
482 5 33 -0.095009 9.428804 16.750814 3.953113
483 5 33 -0.119297 8.168187 20.087917 3.616629
484 5 33 -0.119297 7.403229 18.409433 4.899300
485 5 79 1.089277 7.153652 18.047716 2.317761
486 5 61 -0.616384 8.104459 18.094223 0.887687
487 5 61 -0.616384 5.764283 19.029931 2.090058
488 5 61 -0.616384 6.674045 16.435888 2.666928
489 5 33 -0.083444 27.522752 15.421596 0.561844
490 5 33 -0.09168 13.266508 22.018602 2.714427
491 6 5 0.23943 30.211469 0.793052 3.035801
492 6 63 -0.107446 31.009345 1.900986 2.616555
493 6 5 0.096748 28.914999 1.216548 3.761470
494 6 33 -0.083444 29.877206 0.007406 1.943271
495 6 33 -0.076564 29.250993 2.035003 4.827714
496 6 33 -0.076564 28.390385 0.040531 4.275691
497 6 5 0.239938 32.352997 1.481422 2.356837
498 6 5 0.031579 33.152650 2.574287 1.605533
499 6 33 -0.098346 32.359989 0.328194 1.579573
500 6 33 -0.098346 33.000775 1.227312 3.558778
501 6 5 0.417302 34.582780 2.063544 1.263436
502 6 63 -0.075238 33.256589 3.709166 2.459925
503 6 33 -0.094088 32.468047 2.847504 0.424700
504 6 33 -0.120596 35.273478 1.737349 2.417803
505 6 33 -0.120596 35.309928 3.025323 0.591776
506 6 33 -0.120596 34.526053 0.945026 0.450890
507 6 5 0.258717 33.141947 4.965012 1.806973
508 6 5 0.054096 33.746753 6.049050 2.708885
509 6 33 -0.09756 31.803523 5.252026 1.598203
510 6 33 -0.09756 33.805304 5.004282 0.589273
511 6 33 -0.120109 33.062691 6.085490 3.910682
512 6 33 -0.120109 33.623780 7.281470 2.092084
513 6 79 1.069374 35.518046 5.746621 3.057166
514 6 61 -0.610284 35.668116 4.284410 3.944594
515 6 61 -0.610284 36.089699 7.075946 3.980926
516 6 61 -0.610284 36.377637 5.648162 1.573304
517 6 5 0.244615 27.818575 1.911947 2.886986
518 6 33 -0.110109 28.274520 3.147776 2.460376
519 6 5 0.166751 26.486101 2.070842 3.689373
520 6 33 -0.110109 27.563521 1.126411 1.775305
521 6 33 -0.087619 26.728652 2.852866 4.807485
522 6 33 -0.087619 26.110365 0.808822 4.117988
523 6 5 0.133435 25.282393 2.687576 2.899193
524 6 33 -0.056543 25.578575 3.997812 2.573979
525 6 5 0.043406 23.959478 2.598521 3.738821
526 6 33 -0.056543 25.093563 1.979712 1.723637
527 6 33 -0.026439 24.159980 3.212024 4.965903
528 6 33 -0.026439 23.749259 1.250411 3.970833
529 6 5 -0.042189 22.670961 3.244115 3.090817
530 6 63 -0.05899 22.992502 4.638910 2.984791
531 6 5 0.198119 21.382331 2.711694 3.897084
532 6 33 -0.033517 22.537765 2.757457 1.800820
533 6 33 -0.070849 21.521301 2.987895 5.247541
534 6 33 -0.070849 21.439190 1.334689 3.769572
535 6 5 0.047327 22.076689 5.623086 3.408370
536 6 5 0.014492 22.765152 7.007250 3.417283
537 6 33 -0.023915 21.628660 5.388914 4.695725
538 6 33 -0.023915 21.035093 5.701152 2.500271
539 6 5 0.258874 23.999502 7.058458 4.343337
540 6 63 -0.046319 21.815509 7.950321 3.908714
541 6 33 -0.052305 23.191164 7.274608 2.117247
542 6 33 -0.07104 23.646617 6.767313 5.649253
543 6 33 -0.07104 24.551651 8.325678 4.313226
544 6 33 -0.07104 24.965508 6.162441 3.931249
545 6 5 0.242379 21.580027 9.059020 3.062090
546 6 5 0.030285 20.648704 10.037908 3.786950
547 6 33 -0.097617 20.954824 8.642903 1.896492
548 6 33 -0.097617 22.760835 9.717763 2.750909
549 6 33 -0.112266 19.454012 9.405674 4.084357
550 6 33 -0.112266 20.384884 11.119217 2.965557
551 6 79 1.088381 21.386055 10.653064 5.342843
552 6 61 -0.614813 21.657284 9.331587 6.406548
553 6 61 -0.614813 20.283620 11.745177 6.076360
554 6 61 -0.614813 22.862579 11.460817 4.997342
555 6 5 0.224162 19.907329 3.068003 3.454304
556 6 33 -0.097154 19.572390 4.351689 3.820071
557 6 5 0.152641 18.858691 2.113055 4.129320
558 6 33 -0.097154 19.796415 2.945043 2.079706
559 6 33 -0.114533 19.051772 2.149538 5.501800
560 6 33 -0.114533 19.105913 0.822969 3.686113
561 6 5 0.169008 17.354584 2.443915 3.841863
562 6 63 -0.058703 17.109375 3.762694 4.341138
563 6 5 0.283965 16.455483 1.334998 4.501653
564 6 33 -0.097241 17.160480 2.418387 2.468952
565 6 33 -0.09168 16.585977 1.359055 5.879283
566 6 33 -0.09168 16.809585 0.075799 4.051124
567 6 5 0.211916 15.752118 4.183910 4.362876
568 6 5 0.001658 15.660638 5.724263 4.440284
569 6 33 -0.094681 15.122390 3.663151 5.483339
570 6 33 -0.094681 15.075257 3.792910 3.215439
571 6 5 0.294487 16.449221 6.311312 5.627367
572 6 63 -0.046447 14.288631 6.062917 4.630305
573 6 33 -0.068202 16.209893 6.255534 3.275054
574 6 33 -0.089747 15.982139 5.802176 6.826295
575 6 33 -0.089747 16.294751 7.686267 5.644427
576 6 33 -0.089747 17.798713 6.028926 5.512315
577 6 5 0.23616 13.691280 6.780055 3.567693
578 6 5 0.049903 12.202321 6.974533 3.883902
579 6 33 -0.095009 13.784406 6.066823 2.381502
580 6 33 -0.095009 14.289423 8.021916 3.418603
581 6 33 -0.119297 11.596314 5.738404 4.028004
582 6 33 -0.119297 11.593466 7.643621 2.837268
583 6 79 1.089277 11.937138 7.937096 5.416654
584 6 61 -0.616384 12.934634 7.345060 6.683857
585 6 61 -0.616384 10.293336 7.763450 5.880015
586 6 61 -0.616384 12.280880 9.590898 5.105670
587 6 33 -0.083444 30.903645 0.000291 3.947397
588 6 33 -0.09168 15.119552 1.484273 4.181501
589 7 5 0.23943 9.369528 14.953369 10.711735
590 7 63 -0.107446 10.334385 14.727950 9.683082
591 7 5 0.096748 9.072579 16.450590 10.950334
592 7 33 -0.083444 8.183616 14.305286 10.401583
593 7 33 -0.076564 10.265646 17.101724 11.219135
594 7 33 -0.076564 8.299712 16.484786 12.101058
595 7 5 0.239938 10.886352 13.411849 9.793070
596 7 5 0.031579 11.686575 13.025214 8.524838
597 7 33 -0.098346 9.874601 12.474102 9.969464
598 7 33 -0.098346 11.752291 13.360504 10.877673
599 7 5 0.417302 12.206880 11.562226 8.634871
600 7 63 -0.075238 12.799765 13.907675 8.420863
601 7 33 -0.094088 10.816415 13.122848 7.442718
602 7 33 -0.120596 13.038855 11.421511 9.732162
603 7 33 -0.120596 12.922026 11.199957 7.511386
604 7 33 -0.120596 11.154721 10.672447 8.760510
605 7 5 0.258717 13.118402 14.319439 7.099666
606 7 5 0.054096 14.565075 14.830252 7.075563
607 7 33 -0.09756 12.273457 15.350511 6.725102
608 7 33 -0.09756 13.013063 13.292769 6.172719
609 7 33 -0.120109 14.691392 15.902648 7.940199
610 7 33 -0.120109 14.882031 15.253030 5.796804