LAMMPS Description

3865  atoms
3077  bonds
3876  angles
4131  dihedrals
0  impropers

90  atom types
840  bond types
4614  angle types
985  dihedral types
38  improper types

-0.5 40.5 xlo xhi
-0.5 40.5 ylo yhi
-0.5 40.5 zlo zhi

Masses

1 12.01
2 12.01
3 12.01
4 12.01
5 12.01
6 12.01
7 12.01
8 12.01
9 12.01
10 12.01
11 12.01
12 12.01
13 12.01
14 12.01
15 12.01
16 12.01
17 12.01
18 12.01
19 12.01
20 1.008
21 1.008
22 1.008
23 1.008
24 1.008
25 1.008
26 1.008
27 1.008
28 1.008
29 1.008
30 1.008
31 1.008
32 1.008
33 19.00
34 35.45
35 79.90
36 126.9
37 14.01
38 14.01
39 14.01
40 14.01
41 14.01
42 14.01
43 14.01
44 14.01
45 14.01
46 14.01
47 14.01
48 14.01
49 14.01
50 14.01
51 14.01
52 14.01
53 14.01
54 14.01
55 14.01
56 14.01
57 14.01
58 14.01
59 14.01
60 14.01
61 16.00
62 16.00
63 16.00
64 16.00
65 30.97
66 30.97
67 30.97
68 30.97
69 30.97
70 30.97
71 30.97
72 30.97
73 30.97
74 30.97
75 30.97
76 32.06
77 32.06
78 32.06
79 32.06
80 32.06
81 32.06
82 32.06
83 32.06
84 6.94
85 39.10
86 22.99
87 35.45
88 19.00
89 79.90
90 126.9

Atoms

1 1 5 0.23943 22.136021 17.804873 11.482064
2 1 63 -0.107446 23.211371 18.629028 11.030087
3 1 5 0.096748 22.561906 16.345740 11.758347
4 1 33 -0.083444 21.582558 18.336379 12.636955
5 1 33 -0.076564 23.151765 15.832081 10.614732
6 1 33 -0.076564 21.376054 15.659403 11.971318
7 1 5 0.239938 22.706532 19.805112 10.389110
8 1 5 0.031579 23.822512 20.857355 10.175499
9 1 33 -0.098346 21.705071 20.386170 11.159546
10 1 33 -0.098346 22.190143 19.470209 9.144107
11 1 5 0.417302 23.233244 22.156448 9.552377
12 1 63 -0.075238 24.781767 20.305595 9.278765
13 1 33 -0.094088 24.357855 21.150189 11.426639
14 1 33 -0.120596 22.649758 21.888232 8.326149
15 1 33 -0.120596 24.214733 23.106725 9.356057
16 1 33 -0.120596 22.278218 22.713557 10.384295
17 1 5 0.258717 26.134250 20.615892 9.580667
18 1 5 0.054096 26.984666 20.399966 8.321881
19 1 33 -0.09756 26.587003 19.768086 10.577451
20 1 33 -0.09756 26.309027 21.928679 9.993489
21 1 33 -0.120109 26.888903 19.079822 7.919845
22 1 33 -0.120109 28.308974 20.680493 8.608130
23 1 79 1.069374 26.449342 21.469808 6.936563
24 1 61 -0.610284 24.851633 21.034021 6.483211
25 1 61 -0.610284 27.540010 21.204871 5.637534
26 1 61 -0.610284 26.513626 23.112900 7.433107
27 1 5 0.244615 23.501916 16.111822 12.988027
28 1 33 -0.110109 24.738748 16.685872 12.747470
29 1 5 0.166751 23.659155 14.584785 13.284664
30 1 33 -0.110109 22.943698 16.714273 14.103105
31 1 33 -0.087619 24.214126 13.968956 12.174111
32 1 33 -0.087619 22.388132 14.069062 13.474696
33 1 5 0.133435 24.518843 14.218188 14.541725
34 1 33 -0.056543 25.827942 14.603379 14.322421
35 1 5 0.043406 24.425732 12.682774 14.852920
36 1 33 -0.056543 24.040737 14.909426 15.642754
37 1 33 -0.026439 24.801491 11.968778 13.725387
38 1 33 -0.026439 23.086338 12.425437 15.087919
39 1 5 -0.042189 25.298559 12.156171 16.060330
40 1 63 -0.05899 26.651300 12.407190 15.651475
41 1 5 0.198119 24.772770 10.686427 16.457198
42 1 33 -0.033517 25.050859 12.957109 17.162970
43 1 33 -0.070849 24.803383 9.857017 15.347929
44 1 33 -0.070849 23.438018 10.870388 16.773792
45 1 5 0.047327 27.638785 11.409484 15.778723
46 1 5 0.014492 28.924478 11.850873 15.042423
47 1 33 -0.023915 27.239286 10.214525 15.208350
48 1 33 -0.023915 27.973473 11.263444 17.113757
49 1 5 0.258874 28.693913 12.120379 13.539750
50 1 63 -0.046319 29.863742 10.783877 15.152018
51 1 33 -0.052305 29.360885 13.037036 15.630324
52 1 33 -0.07104 28.225747 10.984629 12.902882
53 1 33 -0.07104 29.885352 12.493417 12.945662
54 1 33 -0.07104 27.785841 13.143395 13.353541
55 1 5 0.242379 31.116664 11.143690 15.701708
56 1 5 0.030285 32.050107 9.929641 15.625697
57 1 33 -0.097617 30.967438 11.497373 17.034108
58 1 33 -0.097617 31.694430 12.192291 15.000490
59 1 33 -0.112266 31.502057 8.879203 16.341015
60 1 33 -0.112266 33.274833 10.252657 16.181776
61 1 79 1.088381 32.317750 9.384064 13.901278
62 1 61 -0.614813 30.816193 8.911101 13.213550
63 1 61 -0.614813 33.378204 8.034463 13.912831
64 1 61 -0.614813 33.017254 10.666210 12.996428
65 1 5 0.224162 25.346564 9.895378 17.699631
66 1 33 -0.097154 26.578251 9.349608 17.418736
67 1 5 0.152641 24.403964 8.707520 18.109157
68 1 33 -0.097154 25.467404 10.755561 18.777790
69 1 33 -0.114533 24.190307 7.912335 16.993655
70 1 33 -0.114533 23.187902 9.242171 18.505658
71 1 5 0.169008 24.929765 7.790422 19.265402
72 1 63 -0.058703 26.164373 7.217895 18.822078
73 1 5 0.283965 23.823496 6.728463 19.614414
74 1 33 -0.097241 25.154341 8.584712 20.379801
75 1 33 -0.09168 23.603169 5.884517 18.539852
76 1 33 -0.09168 22.628059 7.344989 19.938100
77 1 5 0.211916 26.712057 6.193898 19.641538
78 1 5 0.001658 28.218904 6.012167 19.352688
79 1 33 -0.094681 26.077978 4.991349 19.367669
80 1 33 -0.094681 26.589684 6.496435 20.991031
81 1 5 0.294487 28.515507 5.756390 17.861963
82 1 63 -0.046447 28.658958 4.866092 20.077989
83 1 33 -0.068202 28.878984 7.185957 19.710743
84 1 33 -0.089747 27.863120 4.618826 17.420203
85 1 33 -0.089747 29.876683 5.576390 17.690344
86 1 33 -0.089747 28.120373 6.832671 17.087627
87 1 5 0.23616 29.600935 5.124279 21.100866
88 1 5 0.049903 29.890399 3.812571 21.842783
89 1 33 -0.095009 29.090620 6.029097 22.020271
90 1 33 -0.095009 30.782738 5.613005 20.565412
91 1 33 -0.119297 28.715853 3.321263 22.385999
92 1 33 -0.119297 30.783755 4.053403 22.871249
93 1 79 1.089277 30.604723 2.535857 20.744637
94 1 61 -0.616384 29.710406 2.425787 19.281972
95 1 61 -0.616384 30.524341 1.025570 21.556740
96 1 61 -0.616384 32.243499 2.932266 20.417216
97 1 33 -0.083444 21.135508 17.721920 10.517348
98 1 33 -0.09168 24.159574 5.963902 20.715319
99 2 5 0.23943 15.973807 25.193770 30.245978
100 2 63 -0.107446 16.318571 23.944889 29.644875
101 2 5 0.096748 17.123718 26.224869 30.209676
102 2 33 -0.083444 14.865583 25.736124 29.613299
103 2 33 -0.076564 18.241316 25.663579 30.805969
104 2 33 -0.076564 16.693430 27.271466 31.011017
105 2 5 0.239938 15.421085 22.916385 30.075672
106 2 5 0.031579 15.565280 21.639782 29.210947
107 2 33 -0.098346 14.103656 23.353027 29.987072
108 2 33 -0.098346 15.702835 22.575562 31.392223
109 2 5 0.417302 14.524117 20.567504 29.646100
110 2 63 -0.075238 16.876934 21.120662 29.407967
111 2 33 -0.094088 15.321836 22.006751 27.890430
112 2 33 -0.120596 14.710430 20.216390 30.972010
113 2 33 -0.120596 14.637540 19.422220 28.884292
114 2 33 -0.120596 13.233441 21.041520 29.491188
115 2 5 0.258717 17.494494 20.591373 28.243875
116 2 5 0.054096 18.633543 19.655587 28.669606
117 2 33 -0.09756 18.023810 21.628528 27.494559
118 2 33 -0.09756 16.619375 19.864434 27.450084
119 2 33 -0.120109 19.563652 20.365180 29.407819
120 2 33 -0.120109 19.256564 19.147835 27.543346
121 2 79 1.069374 18.032572 18.255238 29.683558
122 2 61 -0.610284 17.380425 18.869402 31.148350
123 2 61 -0.610284 19.380537 17.240437 30.000415
124 2 61 -0.610284 16.838838 17.389921 28.802274
125 2 5 0.244615 17.506563 26.797192 28.803859
126 2 33 -0.110109 18.054007 25.793232 28.023137
127 2 5 0.166751 18.511143 27.987138 28.943176
128 2 33 -0.110109 16.362074 27.267334 28.181713
129 2 33 -0.087619 19.660644 27.530308 29.568092
130 2 33 -0.087619 17.919200 28.931953 29.764461
131 2 5 0.133435 18.916765 28.698459 27.607829
132 2 33 -0.056543 19.629545 27.812730 26.821931
133 2 5 0.043406 19.751556 29.995409 27.897742
134 2 33 -0.056543 17.773552 29.068500 26.918774
135 2 33 -0.026439 20.848782 29.662670 28.677290
136 2 33 -0.026439 18.929504 30.812714 28.653828
137 2 5 -0.042189 20.287061 30.783053 26.636858
138 2 63 -0.05899 21.180233 29.858448 25.998554
139 2 5 0.198119 20.755957 32.246180 27.120081
140 2 33 -0.033517 19.228565 30.992658 25.768340
141 2 33 -0.070849 21.687475 32.132337 28.139221
142 2 33 -0.070849 19.621946 32.803932 27.684497
143 2 5 0.047327 22.460979 30.269124 25.576924
144 2 5 0.014492 23.293375 29.035230 25.159081
145 2 33 -0.023915 23.158739 30.899836 26.590917
146 2 33 -0.023915 22.339368 31.067809 24.453103
147 2 5 0.258874 23.461141 28.009057 26.300414
148 2 63 -0.046319 24.592389 29.501179 24.801083
149 2 33 -0.052305 22.620637 28.407828 24.111774
150 2 33 -0.07104 24.095679 28.582898 27.387969
151 2 33 -0.07104 24.226607 26.944936 25.860717
152 2 33 -0.07104 22.237575 27.515249 26.706457
153 2 5 0.242379 25.027333 29.126213 23.508155
154 2 5 0.030285 26.480160 29.582918 23.330056
155 2 33 -0.097617 24.251155 29.752796 22.545039
156 2 33 -0.097617 24.969986 27.750890 23.334142
157 2 33 -0.112266 26.554236 30.957239 23.475708
158 2 33 -0.112266 26.917794 29.247942 22.061283
159 2 79 1.088381 27.592733 28.805830 24.555302
160 2 61 -0.614813 27.108362 29.266553 26.137848
161 2 61 -0.614813 29.191290 29.364132 24.274176
162 2 61 -0.614813 27.533696 27.097600 24.380876
163 2 5 0.224162 21.248800 33.350032 26.101623
164 2 33 -0.097154 22.536842 33.104663 25.683815
165 2 5 0.152641 21.245845 34.777751 26.756469
166 2 33 -0.097154 20.410654 33.367502 24.999739
167 2 33 -0.114533 21.990842 34.726174 27.924643
168 2 33 -0.114533 19.937185 35.096135 27.084970
169 2 5 0.169008 21.816976 35.934305 25.867294
170 2 63 -0.058703 23.178570 35.606760 25.571734
171 2 5 0.283965 21.640627 37.297282 26.631881
172 2 33 -0.097241 21.080362 35.981807 24.693259
173 2 33 -0.09168 22.399263 37.307337 27.789397
174 2 33 -0.09168 20.316840 37.506204 26.975223
175 2 5 0.211916 23.946531 36.622980 24.941199
176 2 5 0.001658 25.186985 36.017322 24.247297
177 2 33 -0.094681 24.390805 37.527527 25.893879
178 2 33 -0.094681 23.216309 37.285864 23.963960
179 2 5 0.294487 26.052334 35.170875 25.201422
180 2 63 -0.046447 25.992705 37.100544 23.788339
181 2 33 -0.068202 24.751130 35.174979 23.226424
182 2 33 -0.089747 26.497671 35.933687 26.266600
183 2 33 -0.089747 27.153455 34.689677 24.515394
184 2 33 -0.089747 25.339063 34.089693 25.687628
185 2 5 0.23616 26.124686 37.201694 22.383842
186 2 5 0.049903 26.930443 38.466181 22.057288
187 2 33 -0.095009 24.880694 37.322987 21.782018
188 2 33 -0.095009 26.788578 36.096405 21.874130
189 2 33 -0.119297 26.270589 39.575366 22.557616
190 2 33 -0.119297 27.038791 38.600785 20.684711
191 2 79 1.089277 28.615492 38.419477 22.767645
192 2 61 -0.616384 28.565805 37.927264 24.412809
193 2 61 -0.616384 29.275697 40.001890 22.683750
194 2 61 -0.616384 29.581368 37.338071 21.847007
195 2 33 -0.083444 15.668271 25.027619 31.594172
196 2 33 -0.09168 22.001527 38.383279 25.857377
197 3 5 0.23943 10.877190 17.099955 4.394154
198 3 63 -0.107446 9.683141 17.882422 4.437572
199 3 5 0.096748 11.020204 16.140318 5.596411
200 3 33 -0.083444 10.918117 16.359518 3.222544
201 3 33 -0.076564 10.937303 16.879147 6.765554
202 3 33 -0.076564 12.308056 15.635187 5.501871
203 3 5 0.239938 9.799686 19.023010 3.580622
204 3 5 0.031579 8.428628 19.708404 3.359962
205 3 33 -0.098346 10.301417 18.648230 2.338877
206 3 33 -0.098346 10.654761 19.952533 4.158276
207 3 5 0.417302 8.567846 20.894648 2.361662
208 3 63 -0.075238 7.979349 20.208254 4.615764
209 3 33 -0.094088 7.572098 18.752719 2.820780
210 3 33 -0.120596 9.452352 21.841277 2.849078
211 3 33 -0.120596 7.353891 21.516954 2.152040
212 3 33 -0.120596 9.024780 20.453904 1.132237
213 3 5 0.258717 6.584725 20.078233 4.849762
214 3 5 0.054096 6.174641 21.059486 5.955813
215 3 33 -0.09756 6.309490 18.788309 5.271287
216 3 33 -0.09756 5.819374 20.357080 3.726881
217 3 33 -0.120109 6.870100 20.766570 7.115175
218 3 33 -0.120109 4.820311 20.928957 6.207165
219 3 79 1.069374 6.516479 22.797967 5.496389
220 3 61 -0.610284 8.211780 23.002115 5.316422
221 3 61 -0.610284 5.919776 23.787148 6.766307
222 3 61 -0.610284 5.700728 23.166632 4.030417
223 3 5 0.244615 10.016573 14.940557 5.657623
224 3 33 -0.110109 8.733686 15.414209 5.874445
225 3 5 0.166751 10.422293 13.933609 6.782792
226 3 33 -0.110109 10.041820 14.269577 4.446383
227 3 33 -0.087619 10.404326 14.594148 8.000958
228 3 33 -0.087619 11.723054 13.532992 6.527628
229 3 5 0.133435 9.537512 12.646222 6.898789
230 3 33 -0.056543 8.260862 13.008091 7.285340
231 3 5 0.043406 10.167103 11.625854 7.911445
232 3 33 -0.056543 9.458789 12.029796 5.660854
233 3 33 -0.026439 10.351839 12.255664 9.132727
234 3 33 -0.026439 11.416601 11.313163 7.405083
235 3 5 -0.042189 9.344707 10.303436 8.179497
236 3 63 -0.05899 8.122184 10.764539 8.773555
237 3 5 0.198119 10.316628 9.246239 8.908751
238 3 33 -0.033517 9.016185 9.736094 6.959306
239 3 33 -0.070849 10.851750 9.808380 10.056347
240 3 33 -0.070849 11.369137 9.077895 8.025847
241 3 5 0.047327 7.611050 10.152786 9.935982
242 3 5 0.014492 6.441098 10.993471 10.496724
243 3 33 -0.023915 8.563128 10.071985 10.935916
244 3 33 -0.023915 7.090967 8.912201 9.610217
245 3 5 0.258874 6.854093 12.439225 10.847508
246 3 63 -0.046319 6.004320 10.363918 11.699054
247 3 33 -0.052305 5.455894 11.054185 9.512474
248 3 33 -0.07104 7.857827 12.446288 11.799966
249 3 33 -0.07104 5.765784 13.123717 11.356113
250 3 33 -0.07104 7.296562 13.113712 9.727188
251 3 5 0.242379 4.627040 10.043251 11.740395
252 3 5 0.030285 4.292868 9.503862 13.136244
253 3 33 -0.097617 4.340638 9.055626 10.810222
254 3 33 -0.097617 3.840125 11.159523 11.495883
255 3 33 -0.112266 5.051025 8.373991 13.389318
256 3 33 -0.112266 2.954088 9.160025 13.190650
257 3 79 1.088381 4.631974 10.738152 14.441788
258 3 61 -0.614813 6.305253 11.127318 14.437441
259 3 61 -0.614813 4.220039 10.054434 15.961314
260 3 61 -0.614813 3.685926 12.144537 14.160658
261 3 5 0.224162 9.859288 7.768101 9.232150
262 3 33 -0.097154 9.035461 7.729927 10.333817
263 3 5 0.152641 11.088527 6.843193 9.549532
264 3 33 -0.097154 9.183161 7.246094 8.142515
265 3 33 -0.114533 11.829473 7.430785 10.563460
266 3 33 -0.114533 11.878640 6.774866 8.412463
267 3 5 0.169008 10.742289 5.379314 9.987270
268 3 63 -0.058703 9.960498 5.469737 11.182764
269 3 5 0.283965 12.080213 4.570913 10.160037
270 3 33 -0.097241 9.992180 4.792100 8.979435
271 3 33 -0.09168 12.837970 5.099056 11.190737
272 3 33 -0.09168 12.834531 4.605835 9.000843
273 3 5 0.211916 9.707765 4.247159 11.862082
274 3 5 0.001658 8.494869 4.390069 12.808393
275 3 33 -0.094681 10.810321 3.907131 12.631455
276 3 33 -0.094681 9.414178 3.219272 10.976142
277 3 5 0.294487 8.643784 5.561668 13.798765
278 3 63 -0.046447 8.406583 3.191448 13.575668
279 3 33 -0.068202 7.362931 4.642249 12.035856
280 3 33 -0.089747 9.771938 5.400109 14.583610
281 3 33 -0.089747 7.535763 5.605110 14.626446
282 3 33 -0.089747 8.730012 6.768365 13.127532
283 3 5 0.23616 7.248463 2.412499 13.347071
284 3 5 0.049903 7.357160 1.120491 14.167870
285 3 33 -0.095009 7.151441 2.059307 12.009064
286 3 33 -0.095009 6.110413 3.102486 13.735635
287 3 33 -0.119297 8.488134 0.422373 13.781146
288 3 33 -0.119297 6.248205 0.328844 13.928412
289 3 79 1.089277 7.457514 1.445184 15.965280
290 3 61 -0.616384 8.606098 2.679538 16.294568
291 3 61 -0.616384 7.960917 -0.000087 16.742915
292 3 61 -0.616384 5.904594 1.902416 16.539136
293 3 33 -0.083444 12.005620 17.914562 4.434699
294 3 33 -0.09168 11.854235 3.232393 10.418478
295 4 5 0.23943 4.367569 18.756622 32.053045
296 4 63 -0.107446 3.702593 17.518853 31.796874
297 4 5 0.096748 4.802609 19.491754 30.765761
298 4 33 -0.083444 3.545319 19.594247 32.791207
299 4 33 -0.076564 5.589998 18.636768 30.011670
300 4 33 -0.076564 5.603988 20.536023 31.201599
301 4 5 0.239938 3.711722 16.693390 32.966239
302 4 5 0.031579 2.737301 15.498209 32.823747
303 4 33 -0.098346 3.333298 17.429935 34.083566
304 4 33 -0.098346 4.988204 16.183505 33.164888
305 4 5 0.417302 2.704714 14.663313 34.137158
306 4 63 -0.075238 3.204733 14.673687 31.760539
307 4 33 -0.094088 1.471457 16.024875 32.583005
308 4 33 -0.120596 3.962459 14.164802 34.429728
309 4 33 -0.120596 1.839442 13.593564 34.028389
310 4 33 -0.120596 2.276229 15.435612 35.202281
311 4 5 0.258717 2.187801 14.118601 30.939340
312 4 5 0.054096 2.762602 12.910629 30.187820
313 4 33 -0.09756 1.776749 15.065565 30.016499
314 4 33 -0.09756 1.085012 13.686407 31.661452
315 4 33 -0.120109 3.825001 13.318078 29.401133
316 4 33 -0.120109 1.786350 12.371857 29.368623
317 4 79 1.069374 3.350795 11.605465 31.328353
318 4 61 -0.610284 4.656746 12.224703 32.255255
319 4 61 -0.610284 3.867348 10.281896 30.364732
320 4 61 -0.610284 2.056974 11.120771 32.348909
321 4 5 0.244615 3.657796 20.079383 29.874389
322 4 33 -0.110109 2.914444 19.047434 29.326974
323 4 5 0.166751 4.243897 20.986898 28.744140
324 4 33 -0.110109 2.824769 20.854552 30.663776
325 4 33 -0.087619 5.082931 20.223221 27.948286
326 4 33 -0.087619 5.004721 21.968357 29.356895
327 4 5 0.133435 3.193196 21.697782 27.825267
328 4 33 -0.056543 2.507914 20.742442 27.098686
329 4 5 0.043406 3.892093 22.735306 26.877589
330 4 33 -0.056543 2.281872 22.381486 28.613112
331 4 33 -0.026439 4.882444 22.090560 26.152452
332 4 33 -0.026439 4.508887 23.652312 27.710710
333 4 5 -0.042189 2.959125 23.483516 25.844763
334 4 63 -0.05899 2.457508 22.435823 25.001672
335 4 5 0.198119 3.766721 24.750192 25.263878
336 4 33 -0.033517 1.876285 24.007701 26.531318
337 4 33 -0.070849 4.972388 24.335183 24.722151
338 4 33 -0.070849 4.077074 25.504801 26.381858
339 4 5 0.047327 2.468768 22.572967 23.598889
340 4 5 0.014492 2.113414 21.220606 22.939484
341 4 33 -0.023915 3.717805 22.933994 23.127280
342 4 33 -0.023915 1.488114 23.472521 23.218389
343 4 5 0.258874 3.089055 20.088425 23.326924
344 4 63 -0.046319 2.198446 21.401533 21.527839
345 4 33 -0.052305 0.840062 20.859868 23.377099
346 4 33 -0.07104 4.382140 20.402648 22.947574
347 4 33 -0.07104 2.720219 18.917976 22.690032
348 4 33 -0.07104 3.066092 19.858823 24.688021
349 4 5 0.242379 1.032451 21.049534 20.808124
350 4 5 0.030285 1.329040 21.170182 19.308629
351 4 33 -0.097617 -0.000315 21.920360 21.120706
352 4 33 -0.097617 0.644313 19.745540 21.080216
353 4 33 -0.112266 1.694651 22.471783 19.012619
354 4 33 -0.112266 0.192752 20.854203 18.585772
355 4 79 1.088381 2.680105 20.052698 18.790207
356 4 61 -0.614813 4.120669 20.474112 19.625983
357 4 61 -0.614813 2.933936 20.246886 17.103797
358 4 61 -0.614813 2.240975 18.426612 19.129279
359 4 5 0.224162 3.100043 25.793602 24.281293
360 4 33 -0.097154 3.018119 25.293145 23.001976
361 4 5 0.152641 3.936419 27.120616 24.199290
362 4 33 -0.097154 1.826765 26.100753 24.730027
363 4 33 -0.114533 5.242087 26.796292 23.864091
364 4 33 -0.114533 3.938857 27.704350 25.456716
365 4 5 0.169008 3.421900 28.185687 23.171996
366 4 63 -0.058703 3.463844 27.577930 21.876830
367 4 5 0.283965 4.305404 29.480704 23.297489
368 4 33 -0.097241 2.112341 28.504626 23.498414
369 4 33 -0.09168 5.613956 29.213849 22.934234
370 4 33 -0.09168 4.301322 29.960615 24.595031
371 4 5 0.211916 3.227703 28.438901 20.770933
372 4 5 0.001658 2.816202 27.624409 19.524210
373 4 33 -0.094681 4.390462 29.129388 20.463679
374 4 33 -0.094681 2.199546 29.335453 21.029237
375 4 5 0.294487 3.831678 26.520659 19.168968
376 4 63 -0.046447 2.763482 28.526631 18.421298
377 4 33 -0.068202 1.600325 26.998151 19.790922
378 4 33 -0.089747 5.080262 27.063820 18.922336
379 4 33 -0.089747 3.408328 25.858407 18.030174
380 4 33 -0.089747 3.935857 25.596586 20.193342
381 4 5 0.23616 1.480407 28.715909 17.857248
382 4 5 0.049903 1.580791 29.782238 16.758305
383 4 33 -0.095009 0.586954 29.174450 18.814277
384 4 33 -0.095009 1.011093 27.535234 17.302295
385 4 33 -0.119297 2.042879 30.966566 17.305908
386 4 33 -0.119297 0.326621 30.006642 16.219297
387 4 79 1.089277 2.709118 29.284149 15.407393
388 4 61 -0.616384 4.184434 28.676013 16.043726
389 4 61 -0.616384 3.048155 30.671209 14.454472
390 4 61 -0.616384 1.935514 28.092178 14.442679
391 4 33 -0.083444 5.539935 18.549549 32.775030
392 4 33 -0.09168 3.831755 30.516270 22.514703
393 5 5 0.23943 8.414345 13.385799 27.358839
394 5 63 -0.107446 7.279245 13.977780 26.725594
395 5 5 0.096748 9.136432 12.349727 26.468937
396 5 33 -0.083444 9.320101 14.369041 27.726853
397 5 33 -0.076564 8.218386 11.391891 26.069715
398 5 33 -0.076564 10.056082 11.735999 27.305741
399 5 5 0.239938 6.416634 14.575011 27.699301
400 5 5 0.031579 5.358105 15.488863 27.033985
401 5 33 -0.098346 7.152975 15.344821 28.593347
402 5 33 -0.098346 5.744857 13.579869 28.397340
403 5 5 0.417302 4.486038 16.188951 28.116822
404 5 63 -0.075238 4.521462 14.672782 26.219873
405 5 33 -0.094088 6.046745 16.453998 26.304612
406 5 33 -0.120596 3.824417 15.251702 28.891326
407 5 33 -0.120596 3.537051 17.009246 27.541122
408 5 33 -0.120596 5.265982 16.976274 28.945280
409 5 5 0.258717 4.127858 15.257777 24.987195
410 5 5 0.054096 2.886182 14.523224 24.464654
411 5 33 -0.09756 5.151910 15.116911 24.065885
412 5 33 -0.09756 3.810050 16.603060 25.103775
413 5 33 -0.120109 3.186856 13.187022 24.270372
414 5 33 -0.120109 2.503617 15.071469 23.253251
415 5 79 1.069374 1.476904 14.638924 25.626888
416 5 61 -0.610284 1.894253 13.838974 27.087714
417 5 61 -0.610284 0.135659 13.871406 24.879089
418 5 61 -0.610284 1.119848 16.293277 25.920258
419 5 5 0.244615 9.894374 12.908359 25.218377
420 5 33 -0.110109 8.983819 13.419118 24.308888
421 5 5 0.166751 10.762807 11.792671 24.550825
422 5 33 -0.110109 10.737661 13.930175 25.621753
423 5 33 -0.087619 9.930406 10.761519 24.145364
424 5 33 -0.087619 11.618723 11.300642 25.521855
425 5 5 0.133435 11.632258 12.243698 23.328415
426 5 33 -0.056543 10.797023 12.614890 22.291687
427 5 5 0.043406 12.608847 11.097883 22.885257
428 5 33 -0.056543 12.394657 13.342977 23.687574
429 5 33 -0.026439 11.872932 9.953039 22.620530
430 5 33 -0.026439 13.410682 10.839138 23.983225
431 5 5 -0.042189 13.504842 11.389507 21.616743
432 5 63 -0.05899 12.559454 11.553905 20.549364
433 5 5 0.198119 14.681625 10.290856 21.569261
434 5 33 -0.033517 14.134147 12.610469 21.795339
435 5 33 -0.070849 14.139957 9.015822 21.583996
436 5 33 -0.070849 15.350112 10.447901 22.770967
437 5 5 0.047327 12.745613 10.898548 19.315432
438 5 5 0.014492 11.473173 11.044789 18.449705
439 5 33 -0.023915 12.965439 9.543124 19.480813
440 5 33 -0.023915 13.773623 11.512230 18.620991
441 5 5 0.258874 10.214873 10.460718 19.127466
442 5 63 -0.046319 11.693887 10.315811 17.244473
443 5 33 -0.052305 11.257911 12.406442 18.243249
444 5 33 -0.07104 10.379416 9.112222 19.390511
445 5 33 -0.07104 9.123657 10.611844 18.291984
446 5 33 -0.07104 9.940028 11.116429 20.310823
447 5 5 0.242379 11.516477 11.059625 16.054220
448 5 5 0.030285 11.654315 10.108979 14.859115
449 5 33 -0.097617 12.497007 12.034722 15.952255
450 5 33 -0.097617 10.261828 11.650300 16.009018
451 5 33 -0.112266 12.910275 9.527741 14.872782
452 5 33 -0.112266 11.509038 10.821598 13.682431
453 5 79 1.088381 10.397159 8.781933 14.896773
454 5 61 -0.614813 10.604950 7.840161 16.318469
455 5 61 -0.614813 10.620111 7.778011 13.522527
456 5 61 -0.614813 8.827029 9.478572 14.860106
457 5 5 0.224162 15.835327 10.340812 20.489856
458 5 33 -0.097154 15.396339 9.884215 19.268125
459 5 5 0.152641 17.050013 9.435798 20.905430
460 5 33 -0.097154 16.281884 11.644153 20.352625
461 5 33 -0.114533 16.578221 8.156518 21.156760
462 5 33 -0.114533 17.582273 9.945191 22.079777
463 5 5 0.169008 18.207894 9.328494 19.855556
464 5 63 -0.058703 17.647678 8.764972 18.665102
465 5 5 0.283965 19.377359 8.478219 20.474251
466 5 33 -0.097241 18.675154 10.607779 19.594191
467 5 33 -0.09168 18.963222 7.178288 20.706938
468 5 33 -0.09168 19.806011 9.021317 21.672270
469 5 5 0.211916 18.571421 8.394480 17.650471
470 5 5 0.001658 17.860885 8.274848 16.283770
471 5 33 -0.094681 19.122618 7.158520 17.953410
472 5 33 -0.094681 19.578882 9.338581 17.504425
473 5 5 0.294487 16.653122 7.317927 16.319347
474 5 63 -0.046447 18.802588 7.738994 15.356810
475 5 33 -0.068202 17.381477 9.533595 15.926815
476 5 33 -0.089747 17.045326 6.047074 16.701341
477 5 33 -0.089747 16.091044 7.243047 15.057160
478 5 33 -0.089747 15.686234 7.774773 17.197144
479 5 5 0.23616 19.170727 8.605632 14.301503
480 5 5 0.049903 20.255944 7.920130 13.460551
481 5 33 -0.095009 19.701422 9.786644 14.799494
482 5 33 -0.095009 18.078867 8.883847 13.493630
483 5 33 -0.119297 21.352595 7.644669 14.258989
484 5 33 -0.119297 20.654392 8.769074 12.443516
485 5 79 1.089277 19.671278 6.356830 12.711926
486 5 61 -0.616384 18.861236 5.391820 13.879784
487 5 61 -0.616384 21.039435 5.494951 12.135513
488 5 61 -0.616384 18.621164 6.721480 11.402643
489 5 33 -0.083444 8.036536 12.690307 28.504323
490 5 33 -0.09168 20.491907 8.447658 19.657953
491 6 5 0.23943 33.338541 26.475767 24.024720
492 6 63 -0.107446 32.956090 27.717241 24.618322
493 6 5 0.096748 32.504623 25.277189 24.529469
494 6 33 -0.083444 33.222868 26.552760 22.645124
495 6 33 -0.076564 32.589552 25.228816 25.911527
496 6 33 -0.076564 33.144374 24.155797 24.023645
497 6 5 0.239938 33.997310 28.687593 24.466122
498 6 5 0.031579 33.497999 30.112937 24.808669
499 6 33 -0.098346 34.465851 28.695808 23.156723
500 6 33 -0.098346 35.045114 28.383187 25.325362
501 6 5 0.417302 34.623419 31.158621 24.557403
502 6 63 -0.075238 33.142624 30.135122 26.187783
503 6 33 -0.094088 32.422013 30.385703 23.968700
504 6 33 -0.120596 35.728202 30.885213 25.345270
505 6 33 -0.120596 34.195007 32.436053 24.856605
506 6 33 -0.120596 35.014429 31.153431 23.230145
507 6 5 0.258717 31.985724 30.898135 26.497678
508 6 5 0.054096 32.004214 31.240249 27.993334
509 6 33 -0.09756 30.855070 30.146954 26.224386
510 6 33 -0.09756 31.916710 32.088477 25.788663
511 6 33 -0.120109 32.003660 30.072519 28.734948
512 6 33 -0.120109 30.871405 31.967782 28.312498
513 6 79 1.069374 33.477030 32.222929 28.457440
514 6 61 -0.610284 34.883713 31.274548 28.193007
515 6 61 -0.610284 33.320215 32.621501 30.119901
516 6 61 -0.610284 33.522742 33.655388 27.510652
517 6 5 0.244615 31.002499 25.235387 24.090920
518 6 33 -0.110109 30.312780 26.279597 24.683431
519 6 5 0.166751 30.350218 23.866574 24.472287
520 6 33 -0.110109 30.930276 25.381189 22.715609
521 6 33 -0.087619 30.419211 23.706652 25.847143
522 6 33 -0.087619 31.109600 22.869927 23.882697
523 6 5 0.133435 28.863729 23.668684 24.019687
524 6 33 -0.056543 28.061148 24.566837 24.697470
525 6 5 0.043406 28.396127 22.191649 24.270135
526 6 33 -0.056543 28.758016 23.928595 22.663246
527 6 33 -0.026439 28.591682 21.875245 25.605786
528 6 33 -0.026439 29.243109 21.394817 23.519734
529 6 5 -0.042189 26.890821 21.862091 23.920243
530 6 63 -0.05899 26.133025 22.686585 24.818038
531 6 5 0.198119 26.725972 20.260786 23.867773
532 6 33 -0.033517 26.630282 22.311511 22.636183
533 6 33 -0.070849 27.152881 19.701439 25.061177
534 6 33 -0.070849 27.625161 19.852104 22.898199
535 6 5 0.047327 25.056049 22.150360 25.552424
536 6 5 0.014492 24.585395 23.173890 26.611122
537 6 33 -0.023915 25.419347 21.003978 26.235559
538 6 33 -0.023915 23.984977 21.933433 24.703067
539 6 5 0.258874 25.701663 23.570610 27.601263
540 6 63 -0.046319 23.540048 22.558859 27.360586
541 6 33 -0.052305 24.181087 24.323960 25.935153
542 6 33 -0.07104 26.170983 22.461639 28.282902
543 6 33 -0.07104 25.205800 24.472235 28.524743
544 6 33 -0.07104 26.756949 24.170468 26.943713
545 6 5 0.242379 22.328281 23.287508 27.406715
546 6 5 0.030285 21.360958 22.567100 28.353448
547 6 33 -0.097617 21.752786 23.333468 26.146023
548 6 33 -0.097617 22.531007 24.577194 27.876500
549 6 33 -0.112266 21.126447 21.285134 27.887585
550 6 33 -0.112266 20.158840 23.250331 28.393751
551 6 79 1.088381 22.027155 22.457348 30.052579
552 6 61 -0.614813 23.486453 21.550994 30.035178
553 6 61 -0.614813 20.878231 21.649904 31.039557
554 6 61 -0.614813 22.308028 24.039230 30.661446
555 6 5 0.224162 25.371470 19.568747 23.437604
556 6 33 -0.097154 24.447191 19.603620 24.456580
557 6 5 0.152641 25.590045 18.056973 23.071571
558 6 33 -0.097154 24.851818 20.220446 22.332076
559 6 33 -0.114533 26.218947 17.433727 24.138510
560 6 33 -0.114533 26.432343 17.999454 21.971981
561 6 5 0.169008 24.293554 17.245924 22.731355
562 6 63 -0.058703 23.455160 17.284011 23.890762
563 6 5 0.283965 24.704313 15.793677 22.289023
564 6 33 -0.097241 23.656575 17.872824 21.670946
565 6 33 -0.09168 25.303206 15.117039 23.337337
566 6 33 -0.09168 25.592023 15.830168 21.228558
567 6 5 0.211916 22.312381 16.439283 23.867672
568 6 5 0.001658 21.263471 16.913053 24.898389
569 6 33 -0.094681 22.684351 15.145945 24.202485
570 6 33 -0.094681 21.694056 16.446711 22.624590
571 6 5 0.294487 21.839058 17.039219 26.322621
572 6 63 -0.046447 20.230740 15.930789 24.941072
573 6 33 -0.068202 20.815569 18.176934 24.519335
574 6 33 -0.089747 22.338099 15.824705 26.759343
575 6 33 -0.089747 20.835927 17.438393 27.188093
576 6 33 -0.089747 22.848955 17.983866 26.365711
577 6 5 0.23616 18.962445 16.368768 24.494012
578 6 5 0.049903 17.998657 15.174738 24.508586
579 6 33 -0.095009 19.037388 16.838802 23.190987
580 6 33 -0.095009 18.467076 17.361860 25.325036
581 6 33 -0.119297 18.483255 14.180901 23.675832
582 6 33 -0.119297 16.760944 15.577013 24.039471
583 6 79 1.089277 17.781616 14.477024 26.185567
584 6 61 -0.616384 19.303080 14.263042 26.954114
585 6 61 -0.616384 17.018787 12.946655 26.033898
586 6 61 -0.616384 16.787589 15.532256 27.106614
587 6 33 -0.083444 34.659645 26.164045 24.334716
588 6 33 -0.09168 23.623537 15.055206 21.846218
589 7 5 0.23943 2.673456 17.393464 7.668669
590 7 63 -0.107446 2.891957 15.998722 7.452237
591 7 5 0.096748 2.986293 17.841617 9.113685
592 7 33 -0.083444 3.447311 18.137749 6.791298
593 7 33 -0.076564 2.241854 17.067328 9.988855
594 7 33 -0.076564 2.519519 19.144765 9.194844
595 7 5 0.239938 2.198467 15.558558 6.279968
596 7 5 0.031579 2.664368 14.148077 5.842090
597 7 33 -0.098346 2.423175 16.435973 5.224615
598 7 33 -0.098346 0.835961 15.497031 6.541964
599 7 5 0.417302 1.956054 13.726804 4.521492
600 7 63 -0.075238 2.312397 13.229014 6.871740
601 7 33 -0.094088 4.037615 14.216576 5.624846
602 7 33 -0.120596 0.582822 13.696090 4.692728
603 7 33 -0.120596 2.360830 12.471363 4.115393
604 7 33 -0.120596 2.254613 14.609077 3.498267
605 7 5 0.258717 3.271278 12.212022 7.122563
606 7 5 0.054096 2.584069 11.054173 7.858430
607 7 33 -0.09756 4.277159 12.719609 7.927484
608 7 33 -0.09756 3.837276 11.704017 5.962409
609 7 33 -0.120109 2.065785 11.510609 9.057026
610 7 33 -0.120109 3.512703 10.064048 8.126232