LAMMPS Description

5299  atoms
4471  bonds
6120  angles
8109  dihedrals
1224  impropers

90  atom types
840  bond types
4614  angle types
985  dihedral types
38  improper types

-0.5 40.5 xlo xhi
-0.5 40.5 ylo yhi
-0.5 40.5 zlo zhi

Masses

1 12.01
2 12.01
3 12.01
4 12.01
5 12.01
6 12.01
7 12.01
8 12.01
9 12.01
10 12.01
11 12.01
12 12.01
13 12.01
14 12.01
15 12.01
16 12.01
17 12.01
18 12.01
19 12.01
20 1.008
21 1.008
22 1.008
23 1.008
24 1.008
25 1.008
26 1.008
27 1.008
28 1.008
29 1.008
30 1.008
31 1.008
32 1.008
33 19.00
34 35.45
35 79.90
36 126.9
37 14.01
38 14.01
39 14.01
40 14.01
41 14.01
42 14.01
43 14.01
44 14.01
45 14.01
46 14.01
47 14.01
48 14.01
49 14.01
50 14.01
51 14.01
52 14.01
53 14.01
54 14.01
55 14.01
56 14.01
57 14.01
58 14.01
59 14.01
60 14.01
61 16.00
62 16.00
63 16.00
64 16.00
65 30.97
66 30.97
67 30.97
68 30.97
69 30.97
70 30.97
71 30.97
72 30.97
73 30.97
74 30.97
75 30.97
76 32.06
77 32.06
78 32.06
79 32.06
80 32.06
81 32.06
82 32.06
83 32.06
84 6.94
85 39.10
86 22.99
87 35.45
88 19.00
89 79.90
90 126.9

Atoms

1 1 5 -0.059333 0.675935 9.470046 39.243696
2 1 26 0.025278 0.027095 10.323029 39.495281
3 1 26 0.025278 1.399647 9.321079 40.057634
4 1 5 0.017574 1.397053 9.735090 37.903129
5 1 26 0.042065 0.605955 9.971062 37.175829
6 1 6 0.052049 2.127316 8.458569 37.466958
7 1 6 -0.170647 3.082754 7.846158 38.282758
8 1 25 0.147743 3.407322 8.333281 39.194944
9 1 6 -0.144067 3.634924 6.610031 37.939948
10 1 25 0.145343 4.389971 6.196599 38.590660
11 1 6 0.014967 3.222518 5.939012 36.782730
12 1 41 0.105271 4.693668 3.707454 36.941471
13 1 6 -0.144067 2.246724 6.546309 35.988505
14 1 25 0.145343 1.931123 6.074549 35.065293
15 1 6 -0.170647 1.699323 7.784770 36.323390
16 1 25 0.147743 0.938464 8.216763 35.684108
17 1 5 -0.152902 4.050992 3.298884 38.211531
18 1 5 -0.152902 4.800243 2.497750 36.084695
19 1 5 -0.152902 6.079513 4.183557 37.164675
20 1 32 0.122237 4.403886 2.300324 38.512593
21 1 32 0.122237 4.289334 3.994981 39.026861
22 1 32 0.122237 2.958364 3.258950 38.086373
23 1 32 0.122237 5.081448 2.774559 35.056352
24 1 32 0.122237 5.560072 1.801376 36.467615
25 1 32 0.122237 3.838389 1.963071 36.046635
26 1 32 0.122237 6.105283 5.133734 37.711639
27 1 32 0.122237 6.595663 4.332393 36.202808
28 1 32 0.122237 6.645317 3.440712 37.747490
29 1 5 -0.191827 2.337059 10.963670 38.017005
30 1 26 0.07589 1.793977 11.707087 38.619954
31 1 26 0.07589 3.262021 10.697851 38.546683
32 1 5 0.029093 2.648726 11.611722 36.639341
33 1 26 0.062746 1.673141 11.829911 36.180252
34 1 6 0.069132 3.419037 10.627061 35.744517
35 1 6 -0.188642 4.690166 10.167007 36.093216
36 1 25 0.158696 5.159720 10.508041 37.008754
37 1 6 -0.144247 5.418144 9.358083 35.217716
38 1 25 0.145981 6.463185 9.188610 35.437310
39 1 6 0.021854 4.856749 8.878066 34.029855
40 1 41 0.111083 6.634281 7.388493 32.749227
41 1 6 -0.144247 3.516760 9.194696 33.784741
42 1 25 0.145981 3.037831 8.854455 32.873384
43 1 6 -0.188642 2.827154 10.101410 34.594524
44 1 25 0.158696 1.832760 10.419847 34.304789
45 1 5 -0.145615 7.550445 7.284401 33.907186
46 1 5 -0.145615 5.859129 6.135139 32.625811
47 1 5 -0.145615 7.462518 7.518404 31.525443
48 1 32 0.119389 8.315307 6.514274 33.727096
49 1 32 0.119389 8.065696 8.241851 34.072001
50 1 32 0.119389 6.995346 7.004478 34.814720
51 1 32 0.119389 5.241072 6.137440 31.715684
52 1 32 0.119389 6.535020 5.266141 32.586409
53 1 32 0.119389 5.196525 6.027014 33.491727
54 1 32 0.119389 8.116447 8.401677 31.593138
55 1 32 0.119389 6.825100 7.628366 30.634478
56 1 32 0.119389 8.099252 6.632493 31.380657
57 1 5 -0.039984 3.389540 12.970419 36.836070
58 1 26 0.036787 3.059396 13.367440 37.805342
59 1 26 0.036787 4.475104 12.817659 36.902771
60 1 5 0.016149 3.026108 14.064181 35.785254
61 1 26 0.038148 1.932957 14.042049 35.666790
62 1 6 0.044888 3.687662 13.818153 34.422161
63 1 6 -0.190369 5.064624 13.622139 34.300198
64 1 25 0.159991 5.710130 13.715890 35.165409
65 1 6 -0.158939 5.611940 13.200198 33.086213
66 1 25 0.153495 6.643684 12.870081 33.063014
67 1 6 0.031111 4.814957 13.085403 31.944235
68 1 41 0.076258 6.127226 12.527814 29.784883
69 1 6 -0.158939 3.480381 13.490991 32.027983
70 1 25 0.153495 2.842777 13.439373 31.152172
71 1 6 -0.190369 2.905820 13.781745 33.265307
72 1 25 0.159991 1.837501 13.950859 33.326474
73 1 5 -0.121802 7.541104 12.429149 30.221273
74 1 5 -0.121802 5.943231 11.624960 28.622663
75 1 5 -0.121802 5.839311 13.916250 29.364026
76 1 32 0.112047 8.219369 12.651972 29.383786
77 1 32 0.112047 7.750747 13.149554 31.024093
78 1 32 0.112047 7.771033 11.416970 30.586912
79 1 32 0.112047 4.953402 11.777334 28.165405
80 1 32 0.112047 6.705369 11.802953 27.849702
81 1 32 0.112047 6.019241 10.575732 28.947990
82 1 32 0.112047 6.094541 14.628614 30.164151
83 1 32 0.112047 4.772881 14.027958 29.120106
84 1 32 0.112047 6.432995 14.168555 28.471706
85 1 5 -0.131557 3.366487 15.482581 36.321728
86 1 26 0.04685 2.928595 15.560983 37.328188
87 1 26 0.04685 4.455209 15.602861 36.413808
88 1 5 0.090687 2.747816 16.634660 35.478956
89 1 26 0.002914 1.712803 16.356259 35.232841
90 1 6 0.060497 3.536925 16.856616 34.175828
91 1 6 -0.112341 4.868879 17.277397 34.203573
92 1 25 0.08427 5.386313 17.387291 35.149272
93 1 6 -0.122522 5.515549 17.672161 33.029260
94 1 25 0.113929 6.524959 18.063792 33.088900
95 1 6 -0.020369 4.843975 17.653220 31.804224
96 1 5 -0.22158 5.518906 18.188405 30.531294
97 1 6 -0.122522 3.569459 17.084968 31.755764
98 1 25 0.113929 3.053629 16.996482 30.806736
99 1 6 -0.112341 2.911310 16.721591 32.933547
100 1 25 0.08427 1.877364 16.403167 32.878677
101 1 26 0.082969 5.579846 17.358183 29.811142
102 1 5 0.02736 4.769250 19.367549 29.852233
103 1 26 0.021447 3.763170 19.038637 29.552383
104 1 26 0.021447 5.324120 19.642568 28.942487
105 1 5 -0.089133 2.652052 17.931377 36.340601
106 1 26 0.037526 2.083077 17.702578 37.254205
107 1 26 0.037526 3.658501 18.255310 36.637441
108 1 5 0.023193 1.892511 19.086775 35.633838
109 1 26 0.027126 0.882834 18.727014 35.385576
110 1 6 -0.036045 2.626518 19.480574 34.360888
111 1 6 -0.096426 3.931249 19.972204 34.429197
112 1 25 0.100733 4.443142 20.064971 35.378631
113 1 6 -0.105371 4.590201 20.358632 33.264867
114 1 25 0.108496 5.604539 20.735050 33.323371
115 1 6 -0.029515 3.940677 20.252573 32.034517
116 1 5 0.004914 4.685962 20.620699 30.759912
117 1 6 -0.105371 2.626632 19.784763 31.969509
118 1 25 0.108496 2.103013 19.721992 31.023490
119 1 6 -0.096426 1.968109 19.397524 33.134237
120 1 25 0.100733 0.946612 19.040294 33.077325
121 1 26 0.058619 5.713251 20.930771 31.003512
122 1 5 -0.077808 3.974708 21.816866 30.076670
123 1 26 0.029514 2.959581 21.533232 29.763255
124 1 26 0.029514 4.551587 22.078927 29.177109
125 1 5 -0.11903 1.739072 20.345781 36.528535
126 1 26 0.036337 1.171640 20.050593 37.423270
127 1 26 0.036337 2.724771 20.709022 36.852473
128 1 5 0.166712 0.963890 21.496016 35.823080
129 1 26 0.002584 -0.015195 21.097187 35.514978
130 1 6 -0.000196 1.679512 22.071326 34.588088
131 1 6 -0.168982 2.951912 22.638871 34.682635
132 1 25 0.126105 3.447455 22.711127 35.643068
133 1 6 -0.151484 3.639591 23.030469 33.530552
134 1 25 0.127128 4.655099 23.399591 33.623194
135 1 6 0.001352 3.070828 22.852321 32.267263
136 1 5 0.110187 3.913456 23.067679 30.998560
137 1 6 -0.151484 1.728282 22.472599 32.193878
138 1 25 0.127128 1.234114 22.397990 31.232192
139 1 6 -0.168982 1.038438 22.088571 33.346129
140 1 25 0.126105 0.019209 21.731572 33.254566
141 1 26 0.031579 4.944621 23.316202 31.290974
142 1 5 -0.193175 3.356451 24.279592 30.218838
143 1 26 0.053846 3.323134 25.155964 30.882642
144 1 26 0.053846 4.009450 24.505525 29.362142
145 1 26 0.025278 0.050996 8.569849 39.145437
146 1 26 0.082969 6.541691 18.517602 30.765954
147 1 5 -0.191918 0.695715 22.646495 36.818793
148 1 26 0.053846 2.342253 24.069884 29.849013
149 1 5 -0.098505 3.881690 4.688403 36.174383
150 1 32 0.123379 4.515847 5.079528 35.370628
151 1 32 0.123379 3.055918 4.132617 35.705270
152 1 5 -0.155445 5.752975 8.587357 32.810337
153 1 32 0.144952 6.393257 9.476252 32.723219
154 1 32 0.144952 5.101310 8.560222 31.924188
155 1 5 -0.248687 5.195228 12.078292 30.851000
156 1 32 0.173263 4.255253 11.743271 30.386994
157 1 32 0.173263 5.622319 11.208395 31.364548
158 1 26 0.050315 1.640864 23.044372 37.214327
159 1 26 0.050315 0.083421 22.281715 37.657718
160 1 26 0.050315 0.152898 23.453707 36.304720
161 2 5 -0.059333 31.667579 37.468560 10.258496
162 2 26 0.025278 31.879717 38.029152 11.181862
163 2 26 0.025278 30.684068 37.774465 9.874345
164 2 5 0.017574 31.702530 35.950623 10.544893
165 2 26 0.042065 32.677243 35.754239 11.015905
166 2 6 0.052049 31.614698 35.188716 9.216428
167 2 6 -0.170647 30.544305 35.371562 8.336506
168 2 25 0.147743 29.695074 35.974832 8.635818
169 2 6 -0.144067 30.546279 34.783386 7.069831
170 2 25 0.145343 29.681227 34.933256 6.442397
171 2 6 0.014967 31.636247 34.018206 6.638591
172 2 41 0.105271 30.847129 33.364267 4.164932
173 2 6 -0.144067 32.713500 33.864425 7.514750
174 2 25 0.145343 33.557509 33.247112 7.230050
175 2 6 -0.170647 32.711141 34.443363 8.783768
176 2 25 0.147743 33.570875 34.306337 9.428971
177 2 5 -0.152902 30.816396 34.780282 3.732528
178 2 5 -0.152902 31.476132 32.576622 3.072789
179 2 5 -0.152902 29.478818 32.820686 4.336120
180 2 32 0.122237 30.597015 34.844610 2.655482
181 2 32 0.122237 30.040747 35.347947 4.263796
182 2 32 0.122237 31.792637 35.253241 3.917888
183 2 32 0.122237 31.710881 31.556678 3.416003
184 2 32 0.122237 30.809583 32.495799 2.202107
185 2 32 0.122237 32.412078 33.052191 2.740625
186 2 32 0.122237 28.959267 33.274475 5.188652
187 2 32 0.122237 29.514345 31.732062 4.501603
188 2 32 0.122237 28.880098 33.012035 3.432491
189 2 5 -0.191827 30.587575 35.553606 11.547511
190 2 26 0.07589 30.556173 36.355632 12.300455
191 2 26 0.07589 29.610938 35.511344 11.046346
192 2 5 0.029093 30.892704 34.222758 12.289674
193 2 26 0.062746 31.885619 34.351525 12.745387
194 2 6 0.069132 30.941763 33.051855 11.294573
195 2 6 -0.188642 29.816662 32.671875 10.560563
196 2 25 0.158696 28.879186 33.200560 10.689510
197 2 6 -0.144247 29.850723 31.540479 9.742277
198 2 25 0.145981 28.912790 31.172010 9.350402
199 2 6 0.021854 31.036083 30.829039 9.529281
200 2 41 0.111083 30.566883 28.795098 7.897905
201 2 6 -0.144247 32.197329 31.332800 10.123957
202 2 25 0.145981 33.140214 30.812632 9.997056
203 2 6 -0.188642 32.143180 32.388510 11.038276
204 2 25 0.158696 33.041515 32.671233 11.574215
205 2 5 -0.145615 29.236837 29.290849 7.478063
206 2 5 -0.145615 31.556207 29.096535 6.840851
207 2 5 -0.145615 30.483908 27.318871 8.017786
208 2 32 0.119389 28.873135 28.729693 6.604354
209 2 32 0.119389 28.508248 29.161151 8.291508
210 2 32 0.119389 29.291337 30.353545 7.199108
211 2 32 0.119389 32.535408 28.652492 7.073922
212 2 32 0.119389 31.215994 28.701452 5.870437
213 2 32 0.119389 31.681859 30.181599 6.754876
214 2 32 0.119389 29.707705 27.033019 8.744542
215 2 32 0.119389 31.444717 26.901756 8.357015
216 2 32 0.119389 30.234216 26.855127 7.051440
217 2 5 -0.039984 29.869974 34.002095 13.446781
218 2 26 0.036787 29.552696 35.000503 13.776364
219 2 26 0.036787 28.973571 33.482568 13.082381
220 2 5 0.016149 30.462860 33.307999 14.711427
221 2 26 0.038148 31.432030 33.786979 14.913392
222 2 6 0.044888 30.674982 31.800561 14.514347
223 2 6 -0.190369 29.644948 30.966419 14.075532
224 2 25 0.159991 28.644356 31.358197 13.936311
225 2 6 -0.158939 29.914632 29.645290 13.710511
226 2 25 0.153495 29.149408 29.077384 13.194832
227 2 6 0.031111 31.187816 29.099060 13.892468
228 2 41 0.076258 31.343749 26.570299 13.366343
229 2 6 -0.158939 32.154821 29.879141 14.531988
230 2 25 0.153495 33.144757 29.474348 14.712039
231 2 6 -0.190369 31.925480 31.233994 14.771581
232 2 25 0.159991 32.738002 31.852861 15.132771
233 2 5 -0.121802 29.973244 26.190395 12.946094
234 2 5 -0.121802 32.300382 25.678894 12.666341
235 2 5 -0.121802 31.482440 26.371457 14.825451
236 2 32 0.112047 29.793887 25.121577 13.137240
237 2 32 0.112047 29.222218 26.762761 13.508065
238 2 32 0.112047 29.825258 26.374614 11.871278
239 2 32 0.112047 33.319105 25.816509 13.060462
240 2 32 0.112047 32.028683 24.620150 12.789817
241 2 32 0.112047 32.308766 25.910386 11.589849
242 2 32 0.112047 30.696974 26.917339 15.371217
243 2 32 0.112047 32.463733 26.730415 15.168178
244 2 32 0.112047 31.394510 25.301098 15.068256
245 2 5 -0.131557 29.582216 33.587922 15.961078
246 2 26 0.04685 29.407318 34.673749 15.996390
247 2 26 0.04685 28.607960 33.089297 15.858798
248 2 5 0.090687 30.265442 33.205763 17.305497
249 2 26 0.002914 31.310727 33.544696 17.262632
250 2 6 0.060497 30.234735 31.683359 17.532311
251 2 6 -0.112341 29.024292 31.002403 17.684140
252 2 25 0.08427 28.084337 31.530384 17.575134
253 2 6 -0.122522 29.005514 29.665403 18.090476
254 2 25 0.113929 28.051724 29.182367 18.271590
255 2 6 -0.020369 30.196088 28.982635 18.352100
256 2 5 -0.22158 30.172828 27.547577 18.901986
257 2 6 -0.122522 31.403333 29.615007 18.048266
258 2 25 0.113929 32.338804 29.083434 18.178224
259 2 6 -0.112341 31.422659 30.961156 17.674257
260 2 25 0.08427 32.377593 31.461526 17.568523
261 2 26 0.082969 30.682710 26.901437 18.171148
262 2 5 0.02736 30.873714 27.373775 20.277501
263 2 26 0.021447 31.934294 27.651611 20.186581
264 2 26 0.021447 30.821659 26.309305 20.551997
265 2 5 -0.089133 29.605189 33.992142 18.479700
266 2 26 0.037526 29.656384 35.067539 18.252425
267 2 26 0.037526 28.546989 33.711539 18.566073
268 2 5 0.023193 30.333926 33.800000 19.837413
269 2 26 0.027126 31.377909 34.123366 19.710751
270 2 6 -0.036045 30.294061 32.333060 20.238344
271 2 6 -0.096426 29.069068 31.701204 20.459336
272 2 25 0.100733 28.135666 32.235224 20.334249
273 2 6 -0.105371 29.036896 30.366125 20.853971
274 2 25 0.108496 28.083085 29.879456 21.019471
275 2 6 -0.029515 30.231827 29.666825 21.027211
276 2 5 0.004914 30.189343 28.192404 21.401194
277 2 6 -0.105371 31.457390 30.306510 20.830783
278 2 25 0.108496 32.391891 29.781717 20.986896
279 2 6 -0.096426 31.489187 31.641695 20.435227
280 2 25 0.100733 32.443725 32.133585 20.289582
281 2 26 0.058619 29.144526 27.855556 21.476685
282 2 5 -0.077808 30.856784 27.994764 22.786467
283 2 26 0.029514 31.921523 28.266070 22.743045
284 2 26 0.029514 30.784248 26.927213 23.042879
285 2 5 -0.11903 29.712867 34.644833 20.981819
286 2 26 0.036337 29.787629 35.703157 20.691942
287 2 26 0.036337 28.648892 34.398359 21.107075
288 2 5 0.166712 30.455027 34.462071 22.337330
289 2 26 0.002584 31.513477 34.718330 22.174196
290 2 6 -0.000196 30.369462 33.037766 22.913814
291 2 6 -0.168982 29.140369 32.445590 23.211654
292 2 25 0.126105 28.219473 32.997525 23.068355
293 2 6 -0.151484 29.076975 31.105686 23.604317
294 2 25 0.127128 28.106261 30.647314 23.758260
295 2 6 0.001352 30.238579 30.335364 23.696014
296 2 5 0.110187 30.147417 28.813752 23.901913
297 2 6 -0.151484 31.471951 30.983397 23.591843
298 2 25 0.127128 32.392892 30.429661 23.732743
299 2 6 -0.168982 31.535323 32.324621 23.206942
300 2 25 0.126105 32.505795 32.785926 23.065382
301 2 26 0.031579 29.088248 28.516001 23.910684
302 2 5 -0.193175 30.733578 28.452595 25.285003
303 2 26 0.053846 30.219415 29.036492 26.062482
304 2 26 0.053846 30.584287 27.380896 25.486384
305 2 26 0.025278 32.439441 37.713062 9.513509
306 2 26 0.082969 29.131985 27.205610 18.998068
307 2 5 -0.191918 29.901392 35.452963 23.385464
308 2 26 0.053846 31.809796 28.675864 25.320376
309 2 5 -0.098505 31.689996 33.148098 5.370270
310 2 32 0.123379 31.491375 32.131916 5.729545
311 2 32 0.123379 32.740522 33.185951 5.044958
312 2 5 -0.155445 30.990504 29.318759 9.226074
313 2 32 0.144952 30.304095 28.908897 9.980091
314 2 32 0.144952 31.991811 28.912750 9.433931
315 2 5 -0.248687 31.666478 27.966609 12.974601
316 2 32 0.173263 32.758456 28.070189 12.885442
317 2 32 0.173263 31.246980 28.172270 11.982340
318 2 26 0.050315 28.826124 35.288826 23.543323
319 2 26 0.050315 30.057825 36.487477 23.043309
320 2 26 0.050315 30.431034 35.307964 24.338862
321 3 5 -0.059333 10.775398 10.285226 17.489213
322 3 26 0.025278 11.711151 9.705785 17.467215
323 3 26 0.025278 9.931986 9.594157 17.628945
324 3 5 0.017574 10.622503 11.087483 16.177578
325 3 26 0.042065 11.549220 11.670704 16.070186
326 3 6 0.052049 9.430349 12.043393 16.311892
327 3 6 -0.170647 8.146759 11.576423 16.608158
328 3 25 0.147743 7.951634 10.510613 16.634434
329 3 6 -0.144067 7.101001 12.464523 16.869101
330 3 25 0.145343 6.123641 12.050344 17.063194
331 3 6 0.014967 7.320261 13.847065 16.868755
332 3 41 0.105271 4.880090 14.745597 17.507145
333 3 6 -0.144067 8.612953 14.303094 16.599012
334 3 25 0.145343 8.811515 15.367451 16.552143
335 3 6 -0.170647 9.657813 13.419213 16.329560
336 3 25 0.147743 10.647512 13.814591 16.133657
337 3 5 -0.152902 4.906538 14.068673 18.823992
338 3 5 -0.152902 4.320922 16.106809 17.715085
339 3 5 -0.152902 3.965863 14.059054 16.563795
340 3 32 0.122237 4.013012 14.337916 19.408297
341 3 32 0.122237 4.915733 12.975791 18.716079
342 3 32 0.122237 5.798581 14.377412 19.389710
343 3 32 0.122237 4.464284 16.726361 16.815756
344 3 32 0.122237 3.243627 16.068534 17.931592
345 3 32 0.122237 4.819381 16.606251 18.560419
346 3 32 0.122237 4.343321 13.072442 16.269195
347 3 32 0.122237 3.834730 14.658522 15.648813
348 3 32 0.122237 2.977795 13.919806 17.028510
349 3 5 -0.191827 10.502333 10.134226 14.959855
350 3 26 0.07589 11.217146 9.317407 15.141531
351 3 26 0.07589 9.493279 9.703990 14.900871
352 3 5 0.029093 10.897758 10.816812 13.620907
353 3 26 0.062746 11.906844 11.226201 13.776738
354 3 6 0.069132 9.930297 11.967276 13.298263
355 3 6 -0.188642 8.573732 11.734604 13.064588
356 3 25 0.158696 8.180869 10.725005 13.101532
357 3 6 -0.144247 7.731918 12.776282 12.668272
358 3 25 0.145981 6.744448 12.519513 12.310464
359 3 6 0.021854 8.182428 14.099525 12.616696
360 3 41 0.111083 6.206266 15.677379 11.827005
361 3 6 -0.144247 9.494700 14.342716 13.034678
362 3 25 0.145981 9.894702 15.350096 13.004813
363 3 6 -0.188642 10.372621 13.291381 13.312855
364 3 25 0.158696 11.414982 13.510705 13.511729
365 3 5 -0.145615 5.157010 14.651828 12.022882
366 3 5 -0.145615 6.181233 16.624477 12.962509
367 3 5 -0.145615 5.867910 16.444955 10.603549
368 3 32 0.119389 4.156709 15.106820 11.968828
369 3 32 0.119389 5.223367 13.884758 11.237671
370 3 32 0.119389 5.260248 14.177522 13.010042
371 3 32 0.119389 6.879931 17.458672 12.800426
372 3 32 0.119389 5.169174 17.038149 13.097236
373 3 32 0.119389 6.473986 16.103620 13.880958
374 3 32 0.119389 5.802323 15.774714 9.732428
375 3 32 0.119389 6.636674 17.205510 10.396732
376 3 32 0.119389 4.901122 16.959538 10.711960
377 3 5 -0.039984 10.992101 9.756471 12.480582
378 3 26 0.036787 11.267137 8.807457 12.959994
379 3 26 0.036787 10.013714 9.606009 12.004814
380 3 5 0.016149 12.107200 10.036469 11.426653
381 3 26 0.038148 13.007895 10.329747 11.985437
382 3 6 0.044888 11.729924 11.159067 10.450107
383 3 6 -0.190369 10.532132 11.135326 9.733132
384 3 25 0.159991 9.872987 10.277622 9.795817
385 3 6 -0.158939 10.119951 12.258173 9.011557
386 3 25 0.153495 9.108263 12.290397 8.624956
387 3 6 0.031111 10.950157 13.375792 8.892568
388 3 41 0.076258 10.046852 15.205257 7.301073
389 3 6 -0.158939 12.235593 13.303216 9.435705
390 3 25 0.153495 12.913489 14.144003 9.336794
391 3 6 -0.190369 12.593616 12.241249 10.266172
392 3 25 0.159991 13.539376 12.276788 10.793352
393 3 5 -0.121802 8.751838 14.671379 6.814110
394 3 5 -0.121802 9.955890 16.685575 7.312851
395 3 5 -0.121802 11.125163 14.798284 6.374041
396 3 32 0.112047 8.502551 15.101191 5.832175
397 3 32 0.112047 8.800219 13.579515 6.700332
398 3 32 0.112047 7.936821 14.917436 7.511439
399 3 32 0.112047 10.940397 17.133534 7.518140
400 3 32 0.112047 9.600299 17.074980 6.347489
401 3 32 0.112047 9.254350 17.011295 8.096587
402 3 32 0.112047 11.132758 13.705443 6.238228
403 3 32 0.112047 12.103854 15.111230 6.765805
404 3 32 0.112047 10.972335 15.269617 5.390760
405 3 5 -0.131557 12.485872 8.737227 10.662390
406 3 26 0.04685 12.667311 7.958781 11.418670
407 3 26 0.04685 11.647755 8.409775 10.031044
408 3 5 0.090687 13.795041 8.860197 9.830969
409 3 26 0.002914 14.536830 9.392576 10.443875
410 3 6 0.060497 13.555506 9.645491 8.528649
411 3 6 -0.112341 12.697025 9.156626 7.540748
412 3 25 0.08427 12.133276 8.246818 7.709857
413 3 6 -0.122522 12.639237 9.763903 6.283407
414 3 25 0.113929 12.019846 9.320839 5.511468
415 3 6 -0.020369 13.437589 10.872119 5.989172
416 3 5 -0.22158 13.454346 11.473495 4.574827
417 3 6 -0.122522 14.173814 11.452166 7.024145
418 3 25 0.113929 14.748605 12.352136 6.839120
419 3 6 -0.112341 14.257220 10.826110 8.270527
420 3 25 0.08427 14.935258 11.227661 9.013810
421 3 26 0.082969 13.108923 12.515850 4.650868
422 3 5 0.02736 14.849301 11.471805 3.891025
423 3 26 0.021447 15.551735 12.071283 4.488939
424 3 26 0.021447 14.744060 11.950729 2.905779
425 3 5 -0.089133 14.391646 7.443502 9.566178
426 3 26 0.037526 14.532606 6.937453 10.533028
427 3 26 0.037526 13.686855 6.849225 8.969445
428 3 5 0.023193 15.787687 7.479301 8.887100
429 3 26 0.027126 16.465187 8.055611 9.534688
430 3 6 -0.036045 15.679712 8.151489 7.526676
431 3 6 -0.096426 14.873077 7.594181 6.532978
432 3 25 0.100733 14.303720 6.692105 6.717795
433 3 6 -0.105371 14.798645 8.196124 5.279450
434 3 25 0.108496 14.167237 7.761831 4.513482
435 3 6 -0.029515 15.532929 9.354665 5.023515
436 3 5 0.004914 15.402213 10.040942 3.671656
437 3 6 -0.105371 16.359349 9.897287 6.009605
438 3 25 0.108496 16.953781 10.781465 5.814794
439 3 6 -0.096426 16.432907 9.295415 7.263613
440 3 25 0.100733 17.080206 9.718676 8.022669
441 3 26 0.058619 14.684435 9.493790 3.042190
442 3 5 -0.077808 16.776146 10.026359 2.953592
443 3 26 0.029514 17.513433 10.612379 3.521174
444 3 26 0.029514 16.643813 10.500779 1.969678
445 3 5 -0.11903 16.403509 6.067418 8.696123
446 3 26 0.036337 16.511221 5.614206 9.692448
447 3 26 0.036337 15.731078 5.432439 8.101883
448 3 5 0.166712 17.809160 6.107774 8.029690
449 3 26 0.002584 18.453487 6.749261 8.650926
450 3 6 -0.000196 17.806522 6.648852 6.589021
451 3 6 -0.168982 17.061713 6.032571 5.581296
452 3 25 0.126105 16.492119 5.136166 5.793985
453 3 6 -0.151484 16.964138 6.616853 4.315342
454 3 25 0.127128 16.320472 6.159127 3.572192
455 3 6 0.001352 17.600809 7.829337 4.040280
456 3 5 0.110187 17.306846 8.581684 2.731247
457 3 6 -0.151484 18.500006 8.333167 4.983468
458 3 25 0.127128 19.067475 9.231690 4.770761
459 3 6 -0.168982 18.603413 7.744791 6.246071
460 3 25 0.126105 19.256451 8.195352 6.984444
461 3 26 0.031579 16.541991 8.029872 2.164616
462 3 5 -0.193175 18.584897 8.609372 1.863621
463 3 26 0.053846 18.945089 7.581183 1.712419
464 3 26 0.053846 18.361939 9.057114 0.883214
465 3 26 0.025278 10.814841 10.984757 18.337540
466 3 26 0.082969 12.752533 10.923352 3.931145
467 3 5 -0.191918 18.437428 4.696311 8.025774
468 3 26 0.053846 19.373717 9.198259 2.353845
469 3 5 -0.098505 6.236924 14.938445 16.931118
470 3 32 0.123379 6.107587 15.252457 15.889090
471 3 32 0.123379 6.706215 15.772888 17.473645
472 3 5 -0.155445 7.559529 15.092579 11.616299
473 3 32 0.144952 7.541379 14.545719 10.663251
474 3 32 0.144952 8.264358 15.930056 11.504442
475 3 5 -0.248687 10.329758 14.764563 8.691415
476 3 32 0.173263 11.010542 15.488091 9.164842
477 3 32 0.173263 9.400173 14.777088 9.273285
478 3 26 0.050315 17.801315 3.990939 7.472717
479 3 26 0.050315 18.555761 4.335295 9.058938
480 3 26 0.050315 19.427007 4.739680 7.546854
481 4 5 -0.059333 28.849400 8.152478 0.922858
482 4 26 0.025278 27.791700 8.296711 0.653905
483 4 26 0.025278 28.957814 7.185915 1.435155
484 4 5 0.017574 29.326018 9.313447 1.824170
485 4 26 0.042065 29.088622 10.237981 1.277027
486 4 6 0.052049 30.844519 9.208294 2.014253
487 4 6 -0.170647 31.438176 8.061362 2.548629
488 4 25 0.147743 30.817907 7.266600 2.946540
489 4 6 -0.144067 32.827185 7.920492 2.583724
490 4 25 0.145343 33.232737 7.027632 3.034031
491 4 6 0.014967 33.660132 8.914497 2.056799
492 4 41 0.105271 36.070768 7.824899 2.470251
493 4 6 -0.144067 33.056469 10.044510 1.499628
494 4 25 0.145343 33.670222 10.851707 1.117238
495 4 6 -0.170647 31.669787 10.192337 1.470631
496 4 25 0.147743 31.242118 11.080872 1.021397
497 4 5 -0.152902 35.770873 6.673014 1.589208
498 4 5 -0.152902 37.454352 8.273413 2.164742
499 4 5 -0.152902 36.066682 7.429335 3.898737
500 4 32 0.122237 36.664245 6.040013 1.473067
501 4 32 0.122237 34.970770 6.045197 2.003697
502 4 32 0.122237 35.464141 7.028401 0.593863
503 4 32 0.122237 37.660245 9.245961 2.639029
504 4 32 0.122237 38.199287 7.553073 2.532287
505 4 32 0.122237 37.595803 8.383260 1.078272
506 4 32 0.122237 35.061122 7.169894 4.251170
507 4 32 0.122237 36.444289 8.251409 4.527513
508 4 32 0.122237 36.716211 6.553722 4.050523
509 4 5 -0.191827 28.545641 9.326015 3.164634
510 4 26 0.07589 27.501607 9.087848 2.910813
511 4 26 0.07589 28.923127 8.547639 3.841692
512 4 5 0.029093 28.556693 10.719004 3.853491
513 4 26 0.062746 28.179049 11.429996 3.103816
514 4 6 0.069132 29.990063 11.112794 4.245954
515 4 6 -0.188642 30.720069 10.371977 5.177239
516 4 25 0.158696 30.277105 9.501363 5.647146
517 4 6 -0.144247 31.978649 10.805046 5.600601
518 4 25 0.145981 32.419382 10.315376 6.457941
519 4 6 0.021854 32.602941 11.913522 5.019108
520 4 41 0.111083 34.961717 12.301309 6.161145
521 4 6 -0.144247 31.938778 12.534261 3.956340
522 4 25 0.145981 32.376337 13.403318 3.477809
523 4 6 -0.188642 30.630625 12.180429 3.614328
524 4 25 0.158696 30.101474 12.764562 2.870717
525 4 5 -0.145615 34.981981 10.981355 6.830749
526 4 5 -0.145615 35.824887 12.253340 4.961301
527 4 5 -0.145615 35.554319 13.291975 7.092760
528 4 32 0.119389 35.983914 10.766295 7.231276
529 4 32 0.119389 34.271660 10.969581 7.670190
530 4 32 0.119389 34.723501 10.183392 6.119024
531 4 32 0.119389 35.914206 13.245943 4.495370
532 4 32 0.119389 36.834137 11.900188 5.226324
533 4 32 0.119389 35.392810 11.565437 4.226016
534 4 32 0.119389 34.990392 13.319254 8.038075
535 4 32 0.119389 35.536384 14.300296 6.650967
536 4 32 0.119389 36.600291 13.041703 7.326285
537 4 5 -0.039984 27.564672 10.734843 5.057322
538 4 26 0.036787 26.773576 10.011568 4.818262
539 4 26 0.036787 28.056896 10.383431 5.974088
540 4 5 0.016149 26.838694 12.097147 5.280249
541 4 26 0.038148 26.513974 12.451226 4.290963
542 4 6 0.044888 27.748009 13.154061 5.922342
543 4 6 -0.190369 28.444353 12.900861 7.105692
544 4 25 0.159991 28.296087 11.970065 7.640195
545 4 6 -0.158939 29.416483 13.796663 7.557191
546 4 25 0.153495 30.075042 13.493452 8.362408
547 4 6 0.031111 29.623704 15.015087 6.905290
548 4 41 0.076258 31.303550 16.583581 8.094282
549 4 6 -0.158939 28.772325 15.351231 5.849463
550 4 25 0.153495 28.890193 16.301571 5.340338
551 4 6 -0.190369 27.897189 14.404216 5.317552
552 4 25 0.159991 27.353405 14.636570 4.409832
553 4 5 -0.121802 31.738624 15.826292 9.292799
554 4 5 -0.121802 32.420784 17.467250 7.681159
555 4 5 -0.121802 30.133395 17.419589 8.440110
556 4 32 0.112047 32.066475 16.515170 10.085920
557 4 32 0.112047 30.911463 15.223315 9.692395
558 4 32 0.112047 32.578773 15.157256 9.052785
559 4 32 0.112047 32.094949 18.161916 6.891643
560 4 32 0.112047 32.795359 18.064497 8.525550
561 4 32 0.112047 33.252834 16.860957 7.290524
562 4 32 0.112047 29.330186 16.806553 8.878113
563 4 32 0.112047 29.743800 17.921206 7.542420
564 4 32 0.112047 30.424380 18.187031 9.174081
565 4 5 -0.131557 25.538658 11.902836 6.109509
566 4 26 0.04685 24.975134 11.082889 5.639417
567 4 26 0.04685 25.785115 11.601075 7.137352
568 4 5 0.090687 24.601553 13.144646 6.102791
569 4 26 0.002914 24.564180 13.535276 5.075491
570 4 6 0.060497 25.126976 14.243409 7.044466
571 4 6 -0.112341 25.218491 14.027886 8.421819
572 4 25 0.08427 24.983840 13.055420 8.838245
573 4 6 -0.122522 25.499378 15.085585 9.290961
574 4 25 0.113929 25.492159 14.905891 10.360306
575 4 6 -0.020369 25.695184 16.379086 8.800451
576 4 5 -0.22158 25.896896 17.560662 9.762479
577 4 6 -0.122522 25.759572 16.560855 7.417533
578 4 25 0.113929 25.977234 17.541878 7.011601
579 4 6 -0.112341 25.446083 15.511048 6.550351
580 4 25 0.08427 25.379177 15.711746 5.487952
581 4 26 0.082969 26.886963 17.994824 9.555424
582 4 5 0.02736 24.834636 18.686613 9.630845
583 4 26 0.021447 24.869729 19.107179 8.614882
584 4 26 0.021447 25.098066 19.485365 10.340601
585 4 5 -0.089133 23.144184 12.712730 6.452934
586 4 26 0.037526 22.834155 11.926131 5.748734
587 4 26 0.037526 23.114587 12.293543 7.467523
588 4 5 0.023193 22.108564 13.860394 6.305556
589 4 26 0.027126 22.151823 14.225170 5.268456
590 4 6 -0.036045 22.454428 14.990142 7.263831
591 4 6 -0.096426 22.460797 14.762127 8.641023
592 4 25 0.100733 22.237877 13.782784 9.045076
593 4 6 -0.105371 22.749891 15.805428 9.516897
594 4 25 0.108496 22.758064 15.621543 10.584658
595 4 6 -0.029515 23.031273 17.075225 9.011594
596 4 5 0.004914 23.404065 18.196982 9.969860
597 4 6 -0.105371 22.999725 17.308743 7.635273
598 4 25 0.108496 23.191188 18.295708 7.232395
599 4 6 -0.096426 22.711355 16.264752 6.759418
600 4 25 0.100733 22.683380 16.453988 5.692780
601 4 26 0.058619 23.411939 17.819062 11.003263
602 4 5 -0.077808 22.341864 19.322705 9.880439
603 4 26 0.029514 22.338863 19.770307 8.876047
604 4 26 0.029514 22.620884 20.103397 10.603862
605 4 5 -0.11903 20.652628 13.400490 6.584596
606 4 26 0.036337 20.407474 12.613165 5.856801
607 4 26 0.036337 20.572249 12.971365 7.593493
608 4 5 0.166712 19.615574 14.549097 6.420785
609 4 26 0.002584 19.723964 14.952248 5.401805
610 4 6 -0.000196 19.783709 15.696809 7.432116
611 4 6 -0.168982 19.703570 15.472237 8.808050
612 4 25 0.126105 19.489076 14.480771 9.187791
613 4 6 -0.151484 19.994098 16.498937 9.710838
614 4 25 0.127128 19.997476 16.280884 10.773162
615 4 6 0.001352 20.377940 17.761550 9.253015
616 4 5 0.110187 20.916260 18.814125 10.237040
617 4 6 -0.151484 20.262344 18.033307 7.887443
618 4 25 0.127128 20.479800 19.024992 7.508124
619 4 6 -0.168982 19.964393 17.008997 6.985743
620 4 25 0.126105 19.948762 17.230181 5.924852