LAMMPS Description

6183  atoms
4335  bonds
3434  angles
2295  dihedrals
0  impropers

90  atom types
840  bond types
4614  angle types
985  dihedral types
38  improper types

-0.05 40.05 xlo xhi
-0.05 40.05 ylo yhi
-0.05 40.05 zlo zhi

Masses

1 12.01  # c
2 12.01  # cs
3 12.01  # c1
4 12.01  # c2
5 12.01  # c3
6 12.01  # ca
7 12.01  # cp
8 12.01  # cq
9 12.01  # cc
10 12.01  # cd
11 12.01  # ce
12 12.01  # cf
13 12.01  # cg
14 12.01  # ch
15 12.01  # cx
16 12.01  # cy
17 12.01  # cu
18 12.01  # cv
19 12.01  # cz
20 1.008  # h1
21 1.008  # h2
22 1.008  # h3
23 1.008  # h4
24 1.008  # h5
25 1.008  # ha
26 1.008  # hc
27 1.008  # hn
28 1.008  # ho
29 1.008  # hp
30 1.008  # hs
31 1.008  # hw
32 1.008  # hx
33 19.00  # f
34 35.45  # cl
35 79.90  # br
36 126.9  # i
37 14.01  # n
38 14.01  # n1
39 14.01  # n2
40 14.01  # n3
41 14.01  # n4
42 14.01  # na
43 14.01  # nb
44 14.01  # nc
45 14.01  # nd
46 14.01  # ne
47 14.01  # nf
48 14.01  # nh
49 14.01  # no
50 14.01  # ns
51 14.01  # nt
52 14.01  # nx
53 14.01  # ny
54 14.01  # nz
55 14.01  # n+
56 14.01  # nu
57 14.01  # nv
58 14.01  # n7
59 14.01  # n8
60 14.01  # n9
61 16.00  # o
62 16.00  # oh
63 16.00  # os
64 16.00  # ow
65 30.97  # p2
66 30.97  # p3
67 30.97  # p4
68 30.97  # p5
69 30.97  # pb
70 30.97  # pc
71 30.97  # pd
72 30.97  # pe
73 30.97  # pf
74 30.97  # px
75 30.97  # py
76 32.06  # s
77 32.06  # s2
78 32.06  # s4
79 32.06  # s6
80 32.06  # sh
81 32.06  # ss
82 32.06  # sx
83 32.06  # sy
84 6.94  # li+
85 39.10  # k+
86 22.99  # na+
87 35.45  # cl-
88 19.00  # fl-
89 79.90  # br-
90 126.9  # i-

Atoms

1 1 5 -0.213032 25.717 26.364 24.007
2 1 26 0.039779 24.735 25.889 23.811
3 1 26 0.039779 26.232 26.245 23.000
4 1 5 0.401013 26.359 25.480 25.133
5 1 20 -0.03045 26.356 24.440 24.791
6 1 62 -0.701006 25.511 25.560 26.316
7 1 28 0.393337 25.516 26.493 26.537
8 1 5 -0.115738 27.792 25.881 25.512
9 1 26 0.047276 28.285 26.193 24.556
10 1 26 0.047276 27.744 26.742 26.198
11 1 5 0.088994 28.804 24.807 25.949
12 1 20 0.044009 28.897 24.098 25.081
13 1 62 -0.611546 28.250 24.144 27.176
14 1 28 0.382585 28.172 24.921 27.749
15 1 5 0.004558 30.174 25.415 26.204
16 1 26 0.03131 30.479 25.928 25.304
17 1 26 0.03131 30.181 26.086 27.059
18 1 5 0.079508 31.270 24.296 26.431
19 1 20 0.080143 31.308 23.689 25.516
20 1 62 -0.631524 30.967 23.334 27.467
21 1 28 0.40298 31.786 22.939 27.789
22 1 5 0.049683 32.727 24.950 26.648
23 1 26 0.011055 32.774 25.951 26.248
24 1 26 0.011055 32.988 25.119 27.703
25 1 5 0.082195 33.886 24.157 25.970
26 1 20 0.133927 33.796 24.346 24.829
27 1 63 -0.453154 33.675 22.737 26.251
28 1 79 1.1499 34.042 21.705 25.101
29 1 61 -0.641597 32.956 21.881 24.181
30 1 61 -0.641597 35.376 22.191 24.664
31 1 61 -0.641597 34.131 20.456 25.871
32 1 5 -0.133392 35.261 24.676 26.317
33 1 26 0.109112 35.929 24.774 25.459
34 1 26 0.109112 35.109 25.790 26.541
35 1 5 0.030565 35.898 24.065 27.502
36 1 20 0.146564 35.807 22.957 27.473
37 1 63 -0.403762 35.392 24.732 28.626
38 1 79 1.146494 35.395 24.041 30.110
39 1 61 -0.640762 35.622 22.632 29.879
40 1 61 -0.640762 36.503 24.714 30.758
41 1 61 -0.640762 34.148 24.279 30.712
42 1 5 -0.134227 37.468 24.317 27.493
43 1 26 0.033347 37.942 23.629 28.224
44 1 26 0.033347 37.860 24.030 26.551
45 1 5 0.421544 38.009 25.772 27.816
46 1 20 0.061041 37.823 26.049 28.876
47 1 63 -0.496054 37.322 26.699 26.921
48 1 79 1.197211 37.312 28.251 27.290
49 1 61 -0.675044 37.069 28.292 28.772
50 1 61 -0.675044 36.143 28.730 26.562
51 1 61 -0.675044 38.578 28.890 26.955
52 1 26 0.039779 25.638 27.346 24.360
53 1 5 -0.04737 39.476 25.772 27.391
54 1 26 -0.012108 40.015 26.606 27.682
55 1 26 -0.012108 39.612 25.567 26.314
56 1 26 -0.012108 39.997 24.969 27.942
57 2 5 -0.213032 22.217 19.518 14.310
58 2 26 0.039779 21.601 19.255 15.194
59 2 26 0.039779 22.909 20.310 14.744
60 2 5 0.401013 21.190 20.098 13.277
61 2 20 -0.03045 20.634 20.904 13.767
62 2 62 -0.701006 20.239 19.047 12.938
63 2 28 0.393337 20.787 18.359 12.560
64 2 5 -0.115738 21.825 20.639 11.988
65 2 26 0.047276 22.790 21.116 12.299
66 2 26 0.047276 22.036 19.788 11.319
67 2 5 0.088994 21.199 21.844 11.265
68 2 20 0.044009 21.220 22.692 12.002
69 2 62 -0.611546 19.803 21.455 10.874
70 2 28 0.382585 20.006 20.681 10.327
71 2 5 0.004558 22.031 22.252 10.059
72 2 26 0.03131 23.035 22.452 10.403
73 2 26 0.03131 22.030 21.499 9.275
74 2 5 0.079508 21.526 23.621 9.446
75 2 20 0.080143 21.627 24.384 10.230
76 2 62 -0.631524 20.124 23.664 9.101
77 2 28 0.40298 19.977 24.342 8.430
78 2 5 0.049683 22.447 24.070 8.201
79 2 26 0.011055 23.416 23.596 8.235
80 2 26 0.011055 22.070 23.738 7.223
81 2 5 0.082195 22.719 25.604 8.134
82 2 20 0.133927 23.471 25.846 8.983
83 2 63 -0.453154 21.451 26.292 8.389
84 2 79 1.1499 21.508 27.636 9.231
85 2 61 -0.641597 21.734 27.149 10.560
86 2 61 -0.641597 22.633 28.359 8.582
87 2 61 -0.641597 20.204 28.224 8.897
88 2 5 -0.133392 23.435 26.041 6.879
89 2 26 0.109112 24.258 26.736 7.055
90 2 26 0.109112 24.051 25.128 6.557
91 2 5 0.030565 22.570 26.417 5.742
92 2 20 0.146564 21.751 27.094 6.075
93 2 63 -0.403762 22.209 25.230 5.091
94 2 79 1.146494 20.864 25.129 4.162
95 2 61 -0.640762 20.071 26.288 4.508
96 2 61 -0.640762 21.417 25.177 2.823
97 2 61 -0.640762 20.203 23.929 4.468
98 2 5 -0.134227 23.373 27.289 4.683
99 2 26 0.033347 22.646 27.780 4.001
100 2 26 0.033347 23.857 28.086 5.186
101 2 5 0.421544 24.450 26.573 3.767
102 2 20 0.061041 23.972 25.873 3.046
103 2 63 -0.496054 25.359 25.848 4.649
104 2 79 1.197211 26.263 24.689 4.031
105 2 61 -0.675044 25.352 23.949 3.094
106 2 61 -0.675044 26.564 23.877 5.205
107 2 61 -0.675044 27.413 25.228 3.316
108 2 26 0.039779 22.693 18.691 13.878
109 2 5 -0.04737 25.269 27.696 3.135
110 2 26 -0.012108 25.916 27.397 2.384
111 2 26 -0.012108 25.791 28.322 3.883
112 2 26 -0.012108 24.582 28.359 2.581
113 3 5 -0.213032 17.041 11.572 23.584
114 3 26 0.039779 17.194 11.192 24.614
115 3 26 0.039779 16.523 10.688 23.092
116 3 5 0.401013 18.492 11.815 23.040
117 3 20 -0.03045 19.060 10.887 23.161
118 3 62 -0.701006 19.126 12.834 23.867
119 3 28 0.393337 18.563 13.600 23.756
120 3 5 -0.115738 18.550 12.252 21.568
121 3 26 0.047276 17.737 11.685 21.048
122 3 26 0.047276 18.338 13.332 21.516
123 3 5 0.088994 19.731 11.818 20.682
124 3 20 0.044009 19.716 10.693 20.674
125 3 62 -0.611546 20.982 12.371 21.300
126 3 28 0.382585 20.757 13.313 21.288
127 3 5 0.004558 19.547 12.299 19.251
128 3 26 0.03131 18.601 11.919 18.894
129 3 26 0.03131 19.591 13.382 19.163
130 3 5 0.079508 20.632 11.669 18.286
131 3 20 0.080143 20.503 10.579 18.321
132 3 62 -0.631524 22.006 11.866 18.688
133 3 28 0.40298 22.582 11.794 17.917
134 3 5 0.049683 20.396 12.144 16.764
135 3 26 0.011055 19.382 12.477 16.606
136 3 26 0.011055 20.971 13.037 16.480
137 3 5 0.082195 20.654 11.030 15.704
138 3 20 0.133927 19.765 10.288 15.779
139 3 63 -0.453154 21.896 10.347 16.070
140 3 79 1.1499 21.964 8.779 15.828
141 3 61 -0.641597 21.147 8.275 16.891
142 3 61 -0.641597 21.422 8.656 14.449
143 3 61 -0.641597 23.417 8.559 15.875
144 3 5 -0.133392 20.597 11.521 14.278
145 3 26 0.109112 20.023 10.879 13.608
146 3 26 0.109112 19.884 12.420 14.303
147 3 5 0.030565 21.878 11.985 13.707
148 3 20 0.146564 22.693 11.258 13.921
149 3 63 -0.403762 22.058 13.309 14.129
150 3 79 1.146494 23.543 13.998 14.196
151 3 61 -0.640762 24.479 12.899 14.129
152 3 61 -0.640762 23.541 14.840 13.016
153 3 61 -0.640762 23.649 14.705 15.405
154 3 5 -0.134227 21.810 12.020 12.119
155 3 26 0.033347 22.844 12.099 11.720
156 3 26 0.033347 21.452 11.087 11.767
157 3 5 0.421544 20.961 13.159 11.417
158 3 20 0.061041 21.420 14.160 11.565
159 3 63 -0.496054 19.623 13.124 11.999
160 3 79 1.197211 18.683 14.403 11.834
161 3 61 -0.675044 19.589 15.578 12.063
162 3 61 -0.675044 17.753 14.244 12.947
163 3 61 -0.675044 18.085 14.461 10.506
164 3 26 0.039779 16.518 12.478 23.552
165 3 5 -0.04737 20.806 12.723 9.961
166 3 26 -0.012108 20.406 13.440 9.330
167 3 26 -0.012108 20.275 11.759 9.854
168 3 26 -0.012108 21.813 12.588 9.530
169 4 5 -0.213032 8.857 26.212 36.088
170 4 26 0.039779 7.771 26.390 35.955
171 4 26 0.039779 9.003 26.513 37.176
172 4 5 0.401013 9.541 27.200 35.081
173 4 20 -0.03045 9.163 28.207 35.282
174 4 62 -0.701006 9.130 26.834 33.731
175 4 28 0.393337 9.447 25.936 33.632
176 4 5 -0.115738 11.075 27.217 35.153
177 4 26 0.047276 11.331 27.097 36.236
178 4 26 0.047276 11.460 26.353 34.587
179 4 5 0.088994 11.847 28.521 34.880
180 4 20 0.044009 11.489 29.258 35.650
181 4 62 -0.611546 11.521 28.948 33.479
182 4 28 0.382585 11.823 28.160 33.003
183 4 5 0.004558 13.342 28.323 35.079
184 4 26 0.03131 13.495 27.954 36.082
185 4 26 0.03131 13.777 27.651 34.344
186 4 5 0.079508 14.117 29.703 35.025
187 4 20 0.080143 13.722 30.328 35.837
188 4 62 -0.631524 13.887 30.495 33.839
189 4 28 0.40298 14.628 31.099 33.705
190 4 5 0.049683 15.693 29.490 35.289
191 4 26 0.011055 15.885 28.561 35.803
192 4 26 0.011055 16.286 29.364 34.371
193 4 5 0.082195 16.349 30.608 36.155
194 4 20 0.133927 15.982 30.444 37.243
195 4 63 -0.453154 15.859 31.896 35.661
196 4 79 1.1499 15.586 33.032 36.736
197 4 61 -0.641597 14.366 32.583 37.343
198 4 61 -0.641597 16.812 32.969 37.571
199 4 61 -0.641597 15.561 34.223 35.875
200 4 5 -0.133392 17.851 30.495 36.256
201 4 26 0.109112 18.239 30.627 37.267
202 4 26 0.109112 18.074 29.377 36.135
203 4 5 0.030565 18.620 31.219 35.223
204 4 20 0.146564 18.235 32.254 35.095
205 4 63 -0.403762 18.662 30.393 34.093
206 4 79 1.146494 18.916 30.999 32.593
207 4 61 -0.640762 18.682 32.421 32.707
208 4 61 -0.640762 20.301 30.650 32.354
209 4 61 -0.640762 18.009 30.389 31.709
210 4 5 -0.134227 20.126 31.432 35.686
211 4 26 0.033347 20.594 32.201 35.034
212 4 26 0.033347 20.134 31.856 36.658
213 4 5 0.421544 21.105 30.185 35.697
214 4 20 0.061041 21.318 29.825 34.666
215 4 63 -0.496054 20.459 29.133 36.477
216 4 79 1.197211 20.969 27.632 36.307
217 4 61 -0.675044 21.191 27.465 34.830
218 4 61 -0.675044 19.809 26.863 36.743
219 4 61 -0.675044 22.204 27.397 37.044
220 4 26 0.039779 9.148 25.235 35.846
221 4 5 -0.04737 22.328 30.623 36.499
222 4 26 -0.012108 23.131 29.971 36.465
223 4 26 -0.012108 22.083 30.899 37.541
224 4 26 -0.012108 22.754 31.521 36.018
225 5 5 -0.213032 1.581 14.886 21.711
226 5 26 0.039779 0.841 14.345 21.087
227 5 26 0.039779 2.561 14.557 21.237
228 5 5 0.401013 1.371 14.307 23.153
229 5 20 -0.03045 1.454 13.217 23.097
230 5 62 -0.701006 0.015 14.626 23.582
231 5 28 0.393337 -0.009 15.583 23.567
232 5 5 -0.115738 2.367 14.834 24.197
233 5 26 0.047276 3.346 14.936 23.663
234 5 26 0.047276 2.027 15.827 24.533
235 5 5 0.088994 2.830 13.925 25.349
236 5 20 0.044009 3.326 13.039 24.865
237 5 62 -0.611546 1.611 13.541 26.136
238 5 28 0.382585 1.302 14.426 26.382
239 5 5 0.004558 3.866 14.624 26.215
240 5 26 0.03131 4.680 14.927 25.575
241 5 26 0.03131 3.456 15.473 26.756
242 5 5 0.079508 4.515 13.625 27.259
243 5 20 0.080143 5.003 12.826 26.684
244 5 62 -0.631524 3.579 12.917 28.102
245 5 28 0.40298 4.022 12.635 28.911
246 5 5 0.049683 5.649 14.362 28.137
247 5 26 0.011055 6.019 15.246 27.640
248 5 26 0.011055 5.279 14.779 29.086
249 5 5 0.082195 6.897 13.477 28.434
250 5 20 0.133927 7.492 13.397 27.442
251 5 63 -0.453154 6.417 12.151 28.829
252 5 79 1.1499 7.262 10.898 28.345
253 5 61 -0.641597 6.919 10.821 26.955
254 5 61 -0.641597 8.650 11.318 28.670
255 5 61 -0.641597 6.767 9.863 29.263
256 5 5 -0.133392 7.875 14.110 29.394
257 5 26 0.109112 8.918 14.032 29.083
258 5 26 0.109112 7.740 15.240 29.254
259 5 5 0.030565 7.658 13.810 30.825
260 5 20 0.146564 7.484 12.722 30.979
261 5 63 -0.403762 6.675 14.699 31.283
262 5 79 1.146494 5.761 14.366 32.600
263 5 61 -0.640762 5.930 12.951 32.840
264 5 61 -0.640762 6.367 15.209 33.612
265 5 61 -0.640762 4.426 14.691 32.305
266 5 5 -0.134227 8.969 14.108 31.672
267 5 26 0.033347 8.868 13.622 32.666
268 5 26 0.033347 9.795 13.626 31.213
269 5 5 0.421544 9.379 15.616 31.938
270 5 20 0.061041 8.653 16.122 32.611
271 5 63 -0.496054 9.424 16.289 30.643
272 5 79 1.197211 9.369 17.883 30.607
273 5 61 -0.675044 8.332 18.254 31.629
274 5 61 -0.675044 8.878 18.140 29.258
275 5 61 -0.675044 10.658 18.473 30.942
276 5 26 0.039779 1.417 15.920 21.740
277 5 5 -0.04737 10.817 15.572 32.449
278 5 26 -0.012108 11.179 16.468 32.819
279 5 26 -0.012108 11.520 15.129 31.719
280 5 26 -0.012108 10.846 14.935 33.351
281 6 5 -0.213032 12.395 0.967 39.164
282 6 26 0.039779 11.894 0.579 40.075
283 6 26 0.039779 13.090 1.752 39.605
284 6 5 0.401013 11.230 1.586 38.315
285 6 20 -0.03045 10.694 2.302 38.945
286 6 62 -0.701006 10.301 0.518 37.967
287 6 28 0.393337 10.835 -0.093 37.461
288 6 5 -0.115738 11.690 2.293 37.031
289 6 26 0.047276 12.658 2.793 37.287
290 6 26 0.047276 11.866 1.528 36.256
291 6 5 0.088994 10.927 3.524 36.512
292 6 20 0.044009 10.989 4.293 37.330
293 6 62 -0.611546 9.517 3.093 36.233
294 6 28 0.382585 9.695 2.393 35.587
295 6 5 0.004558 11.598 4.103 35.275
296 6 26 0.03131 12.623 4.329 35.532
297 6 26 0.03131 11.546 3.435 34.420
298 6 5 0.079508 10.960 5.495 34.871
299 6 20 0.080143 11.109 6.178 35.718
300 6 62 -0.631524 9.527 5.487 34.685
301 6 28 0.40298 9.272 6.219 34.111
302 6 5 0.049683 11.712 6.124 33.591
303 6 26 0.011055 12.700 5.708 33.470
304 6 26 0.011055 11.244 5.871 32.629
305 6 5 0.082195 11.899 7.671 33.662
306 6 20 0.133927 12.728 7.869 34.447
307 6 63 -0.453154 10.635 8.249 34.123
308 6 79 1.1499 10.720 9.502 35.095
309 6 61 -0.641597 11.117 8.897 36.332
310 6 61 -0.641597 11.727 10.355 34.412
311 6 61 -0.641597 9.358 10.040 34.966
312 6 5 -0.133392 12.447 8.274 32.392
313 6 26 0.109112 13.249 8.997 32.553
314 6 26 0.109112 13.067 7.439 31.910
315 6 5 0.030565 11.441 8.711 31.401
316 6 20 0.146564 10.633 9.300 31.891
317 6 63 -0.403762 11.070 7.576 30.669
318 6 79 1.146494 9.636 7.490 29.883
319 6 61 -0.640762 8.830 8.556 30.434
320 6 61 -0.640762 10.031 7.706 28.505
321 6 61 -0.640762 9.073 6.227 30.126
322 6 5 -0.134227 12.077 9.733 30.363
323 6 26 0.033347 11.255 10.246 29.819
324 6 26 0.033347 12.575 10.503 30.895
325 6 5 0.421544 13.079 9.182 29.265
326 6 20 0.061041 12.558 8.532 28.529
327 6 63 -0.496054 14.116 8.428 29.963
328 6 79 1.197211 15.001 7.394 29.131
329 6 61 -0.675044 14.028 6.699 28.221
330 6 61 -0.675044 15.471 6.487 30.172
331 6 61 -0.675044 16.036 8.073 28.361
332 6 26 0.039779 12.858 0.219 38.598
333 6 5 -0.04737 13.766 10.412 28.675
334 6 26 -0.012108 14.339 10.230 27.832
335 6 26 -0.012108 14.336 10.988 29.426
336 6 26 -0.012108 12.989 11.084 28.273
337 7 5 -0.213032 26.708 5.264 30.378
338 7 26 0.039779 26.422 4.193 30.359
339 7 26 0.039779 26.799 5.455 31.496
340 7 5 0.401013 25.487 6.003 29.727
341 7 20 -0.03045 24.583 5.708 30.269
342 7 62 -0.701006 25.352 5.538 28.352
343 7 28 0.393337 26.184 5.781 27.946
344 7 5 -0.115738 25.598 7.535 29.732
345 7 26 0.047276 26.091 7.802 30.701
346 7 26 0.047276 26.246 7.841 28.894
347 7 5 0.088994 24.333 8.400 29.874
348 7 20 0.044009 23.874 8.116 30.860
349 7 62 -0.611546 23.440 8.080 28.710
350 7 28 0.382585 24.042 8.311 27.986
351 7 5 0.004558 24.685 9.879 29.928
352 7 26 0.03131 25.378 10.023 30.743
353 7 26 0.03131 25.100 10.246 28.992
354 7 5 0.079508 23.423 10.758 30.301
355 7 20 0.080143 23.080 10.430 31.292
356 7 62 -0.631524 22.265 10.568 29.458
357 7 28 0.40298 21.703 11.351 29.499
358 7 5 0.049683 23.817 12.317 30.408
359 7 26 0.011055 24.874 12.447 30.576
360 7 26 0.011055 23.669 12.881 29.476
361 7 5 0.082195 23.099 13.076 31.567
362 7 20 0.133927 23.594 12.720 32.554
363 7 63 -0.453154 21.690 12.679 31.552
364 7 79 1.1499 20.965 12.516 32.954
365 7 61 -0.641597 21.508 11.278 33.431
366 7 61 -0.641597 21.386 13.751 33.666
367 7 61 -0.641597 19.555 12.567 32.541
368 7 5 -0.133392 23.340 14.567 31.558
369 7 26 0.109112 23.581 14.984 32.537
370 7 26 0.109112 24.365 14.698 31.061
371 7 5 0.030565 22.365 15.370 30.791
372 7 20 0.146564 21.323 15.063 31.031
373 7 63 -0.403762 22.766 15.324 29.449
374 7 79 1.146494 21.710 15.594 28.225
375 7 61 -0.640762 20.397 15.474 28.817
376 7 61 -0.640762 22.052 16.943 27.822
377 7 61 -0.640762 21.928 14.625 27.232
378 7 5 -0.134227 22.421 16.896 31.229
379 7 26 0.033347 21.511 17.409 30.850
380 7 26 0.033347 22.348 16.957 32.285
381 7 5 0.421544 23.663 17.774 30.781
382 7 20 0.061041 23.669 17.938 29.681
383 7 63 -0.496054 24.869 17.064 31.195
384 7 79 1.197211 26.258 17.453 30.513
385 7 61 -0.675044 25.934 17.631 29.057
386 7 61 -0.675044 27.048 16.245 30.721
387 7 61 -0.675044 26.807 18.680 31.075
388 7 26 0.039779 27.564 5.473 29.812
389 7 5 -0.04737 23.601 19.044 31.627
390 7 26 -0.012108 24.256 19.792 31.343
391 7 26 -0.012108 23.674 18.843 32.712
392 7 26 -0.012108 22.624 19.530 31.455
393 8 5 -0.213032 32.309 33.040 19.327
394 8 26 0.039779 33.314 33.431 19.068
395 8 26 0.039779 31.633 33.839 18.881
396 8 5 0.401013 32.290 33.026 20.896
397 8 20 -0.03045 32.552 34.029 21.248
398 8 62 -0.701006 33.325 32.110 21.357
399 8 28 0.393337 33.067 31.267 20.982
400 8 5 -0.115738 30.943 32.616 21.509
401 8 26 0.047276 30.157 33.055 20.844
402 8 26 0.047276 30.870 31.516 21.486
403 8 5 0.088994 30.482 33.230 22.842
404 8 20 0.044009 30.419 34.339 22.666
405 8 62 -0.611546 31.505 32.870 23.879
406 8 28 0.382585 31.460 31.904 23.811
407 8 5 0.004558 29.094 32.738 23.221
408 8 26 0.03131 28.426 32.972 22.405
409 8 26 0.03131 29.074 31.675 23.450
410 8 5 0.079508 28.518 33.534 24.463
411 8 20 0.080143 28.461 34.592 24.172
412 8 62 -0.631524 29.364 33.545 25.634
413 8 28 0.40298 28.827 33.710 26.418
414 8 5 0.049683 27.027 33.040 24.824
415 8 26 0.011055 26.556 32.558 23.981
416 8 26 0.011055 26.991 32.247 25.585
417 8 5 0.082195 26.066 34.189 25.257
418 8 20 0.133927 25.807 34.786 24.296
419 8 63 -0.453154 26.795 35.050 26.189
420 8 79 1.1499 26.521 36.611 26.106
421 8 61 -0.641597 27.228 36.978 24.914
422 8 61 -0.641597 25.037 36.662 26.047
423 8 61 -0.641597 27.040 37.051 27.409
424 8 5 -0.133392 24.726 33.706 25.755
425 8 26 0.109112 23.875 34.258 25.353
426 8 26 0.109112 24.551 32.709 25.215
427 8 5 0.030565 24.635 33.447 27.207
428 8 20 0.146564 25.076 34.288 27.787
429 8 63 -0.403762 25.150 32.163 27.426
430 8 79 1.146494 25.738 31.709 28.885
431 8 61 -0.640762 25.939 32.938 29.619
432 8 61 -0.640762 24.664 30.885 29.403
433 8 61 -0.640762 26.943 31.016 28.681
434 8 5 -0.134227 23.119 33.414 27.683
435 8 26 0.033347 23.091 33.497 28.790
436 8 26 0.033347 22.626 34.285 27.331
437 8 5 0.421544 22.224 32.165 27.294
438 8 20 0.061041 22.560 31.244 27.819
439 8 63 -0.496054 22.326 31.990 25.848
440 8 79 1.197211 21.913 30.585 25.216
441 8 61 -0.675044 22.483 29.560 26.155
442 8 61 -0.675044 22.644 30.592 23.954
443 8 61 -0.675044 20.466 30.447 25.115
444 8 26 0.039779 32.143 32.065 18.984
445 8 5 -0.04737 20.782 32.583 27.576
446 8 26 -0.012108 20.086 31.819 27.521
447 8 26 -0.012108 20.463 33.456 26.976
448 8 26 -0.012108 20.705 32.874 28.638
449 9 5 -0.213032 8.005 3.232 11.494
450 9 26 0.039779 8.126 3.471 10.418
451 9 26 0.039779 6.883 3.055 11.562
452 9 5 0.401013 8.467 4.535 12.235
453 9 20 -0.03045 7.893 5.376 11.833
454 9 62 -0.701006 9.871 4.767 11.922
455 9 28 0.393337 10.310 3.984 12.254
456 9 5 -0.115738 8.290 4.491 13.760
457 9 26 0.047276 7.339 3.931 13.943
458 9 26 0.047276 9.136 3.931 14.193
459 9 5 0.088994 7.949 5.776 14.536
460 9 20 0.044009 6.969 6.138 14.119
461 9 62 -0.611546 9.067 6.750 14.303
462 9 28 0.382585 9.804 6.223 14.645
463 9 5 0.004558 7.749 5.487 16.015
464 9 26 0.03131 6.980 4.734 16.103
465 9 26 0.03131 8.665 5.170 16.507
466 9 5 0.079508 7.177 6.750 16.779
467 9 20 0.080143 6.207 6.992 16.323
468 9 62 -0.631524 7.942 7.966 16.623
469 9 28 0.40298 7.765 8.556 17.366
470 9 5 0.049683 6.920 6.416 18.335
471 9 26 0.011055 6.823 5.354 18.500
472 9 26 0.011055 7.765 6.668 18.991
473 9 5 0.082195 5.627 7.064 18.917
474 9 20 0.133927 4.731 6.473 18.478
475 9 63 -0.453154 5.577 8.451 18.451
476 9 79 1.1499 4.150 9.047 18.092
477 9 61 -0.641597 3.865 8.412 16.838
478 9 61 -0.641597 3.335 8.621 19.259
479 9 61 -0.641597 4.441 10.488 18.114
480 9 5 -0.133392 5.481 6.892 20.410
481 9 26 0.109112 4.482 6.587 20.727
482 9 26 0.109112 6.039 5.920 20.652
483 9 5 0.030565 6.068 7.962 21.242
484 9 20 0.146564 5.784 8.966 20.855
485 9 63 -0.403762 7.434 7.675 21.370
486 9 79 1.146494 8.529 8.842 21.720
487 9 61 -0.640762 7.854 10.094 21.464
488 9 61 -0.640762 8.798 8.596 23.123
489 9 61 -0.640762 9.645 8.668 20.883
490 9 5 -0.134227 5.460 7.936 22.710
491 9 26 0.033347 5.703 8.896 23.213
492 9 26 0.033347 4.402 7.921 22.647
493 9 5 0.421544 5.900 6.777 23.697
494 9 20 0.061041 6.970 6.872 23.986
495 9 63 -0.496054 5.670 5.510 23.011
496 9 79 1.197211 6.409 4.203 23.547
497 9 61 -0.675044 7.804 4.656 23.872
498 9 61 -0.675044 6.408 3.345 22.367
499 9 61 -0.675044 5.753 3.662 24.731
500 9 26 0.039779 8.608 2.438 11.810
501 9 5 -0.04737 4.909 6.822 24.858
502 9 26 -0.012108 5.154 6.226 25.668
503 9 26 -0.012108 3.864 6.648 24.540
504 9 26 -0.012108 4.946 7.830 25.308
505 10 5 -0.213032 26.306 15.166 21.978
506 10 26 0.039779 26.708 14.247 22.449
507 10 26 0.039779 26.486 14.953 20.875
508 10 5 0.401013 27.213 16.318 22.536
509 10 20 -0.03045 28.257 16.057 22.333
510 10 62 -0.701006 27.043 16.373 23.983
511 10 28 0.393337 26.111 16.557 24.096
512 10 5 -0.115738 26.918 17.702 21.941
513 10 26 0.047276 26.665 17.525 20.864
514 10 26 0.047276 26.041 18.124 22.459
515 10 5 0.088994 28.057 18.716 21.742
516 10 20 0.044009 28.789 18.226 21.042
517 10 62 -0.611546 28.650 18.995 23.092
518 10 28 0.382585 27.857 19.321 23.544
519 10 5 0.004558 27.550 19.985 21.073
520 10 26 0.03131 27.081 19.702 20.143
521 10 26 0.03131 26.864 20.546 21.703
522 10 5 0.079508 28.746 20.936 20.658
523 10 20 0.080143 29.372 20.378 19.949
524 10 62 -0.631524 29.658 21.282 21.723
525 10 28 0.40298 30.110 22.107 21.506
526 10 5 0.049683 28.202 22.252 19.904
527 10 26 0.011055 27.216 22.093 19.493
528 10 26 0.011055 28.031 23.110 20.569
529 10 5 0.082195 29.095 22.717 18.713
530 10 20 0.133927 28.923 21.959 17.852
531 10 63 -0.453154 30.489 22.654 19.153
532 10 79 1.1499 31.570 22.191 18.085
533 10 61 -0.641597 31.329 20.780 18.005
534 10 61 -0.641597 31.197 23.004 16.898
535 10 61 -0.641597 32.805 22.671 18.721
536 10 5 -0.133392 28.677 24.041 18.119
537 10 26 0.109112 28.649 24.051 17.029
538 10 26 0.109112 27.550 24.112 18.319
539 10 5 0.030565 29.310 25.239 18.710
540 10 20 0.146564 30.409 25.096 18.812
541 10 63 -0.403762 28.583 25.557 19.865
542 10 79 1.146494 29.242 26.431 21.083
543 10 61 -0.640762 30.668 26.401 20.851
544 10 61 -0.640762 28.641 27.735 20.880
545 10 61 -0.640762 28.895 25.823 22.301
546 10 5 -0.134227 29.180 26.487 17.734
547 10 26 0.033347 29.888 27.275 18.068
548 10 26 0.033347 29.517 26.208 16.768
549 10 5 0.421544 27.765 27.182 17.569
550 10 20 0.061041 27.452 27.696 18.504
551 10 63 -0.496054 26.806 26.138 17.219
552 10 79 1.197211 25.251 26.430 17.418
553 10 61 -0.675044 25.160 27.144 18.737
554 10 61 -0.675044 24.699 25.084 17.521
555 10 61 -0.675044 24.719 27.258 16.344
556 10 26 0.039779 25.314 15.366 22.244
557 10 5 -0.04737 27.887 28.083 16.342
558 10 26 -0.012108 27.091 28.728 16.192
559 10 26 -0.012108 28.124 27.523 15.418
560 10 26 -0.012108 28.716 28.792 16.512
561 11 5 -0.213032 13.418 33.143 25.445
562 11 26 0.039779 13.020 34.153 25.218
563 11 26 0.039779 14.280 33.068 24.708
564 11 5 0.401013 12.233 32.174 25.104
565 11 20 -0.03045 11.913 32.376 24.077
566 11 62 -0.701006 11.116 32.489 25.985
567 11 28 0.393337 11.469 32.338 26.862
568 11 5 -0.115738 12.576 30.682 25.238
569 11 26 0.047276 13.634 30.579 24.888
570 11 26 0.047276 12.513 30.405 26.303
571 11 5 0.088994 11.925 29.653 24.299
572 11 20 0.044009 12.227 29.949 23.257
573 11 62 -0.611546 10.441 29.729 24.511
574 11 28 0.382585 10.410 29.528 25.458
575 11 5 0.004558 12.463 28.254 24.561
576 11 26 0.03131 13.537 28.290 24.455
577 11 26 0.03131 12.179 27.873 25.538
578 11 5 0.079508 11.975 27.231 23.456
579 11 20 0.080143 12.355 27.591 22.490
580 11 62 -0.631524 10.545 27.170 23.260
581 11 28 0.40298 10.309 26.318 22.874
582 11 5 0.049683 12.593 25.765 23.713
583 11 26 0.011055 13.479 25.812 24.327
584 11 26 0.011055 11.945 25.105 24.307
585 11 5 0.082195 13.008 25.013 22.411
586 11 20 0.133927 13.973 25.527 22.024
587 11 63 -0.453154 11.932 25.190 21.435
588 11 79 1.1499 12.351 25.366 19.914
589 11 61 -0.641597 12.852 26.710 19.893
590 11 61 -0.641597 13.347 24.278 19.740
591 11 61 -0.641597 11.078 25.066 19.243
592 11 5 -0.133392 13.426 23.582 22.644
593 11 26 0.109112 14.339 23.294 22.119
594 11 26 0.109112 13.834 23.562 23.716
595 11 5 0.030565 12.348 22.575 22.559
596 11 20 0.146564 11.722 22.741 21.654
597 11 63 -0.403762 11.704 22.562 23.804
598 11 79 1.146494 10.164 22.028 23.970
599 11 61 -0.640762 9.619 22.000 22.632
600 11 61 -0.640762 10.360 20.714 24.552
601 11 61 -0.640762 9.473 22.925 24.800
602 11 5 -0.134227 12.947 21.120 22.342
603 11 26 0.033347 12.130 20.444 22.010
604 11 26 0.033347 13.629 21.144 21.531
605 11 5 0.421544 13.669 20.403 23.557
606 11 20 0.061041 12.949 20.144 24.363
607 11 63 -0.496054 14.686 21.321 24.062
608 11 79 1.197211 15.268 21.087 25.528
609 11 61 -0.675044 14.072 20.733 26.364
610 11 61 -0.675044 15.765 22.414 25.874
611 11 61 -0.675044 16.251 20.012 25.550
612 11 26 0.039779 13.672 33.016 26.453
613 11 5 -0.04737 14.422 19.219 22.953
614 11 26 -0.012108 14.819 18.556 23.641
615 11 26 -0.012108 15.182 19.525 22.212
616 11 26 -0.012108 13.695 18.578 22.425
617 12 5 -0.213032 14.589 31.047 28.132
618 12 26 0.039779 13.561 31.434 27.977
619 12 26 0.039779 15.059 31.241 27.114
620 12 5 0.401013 14.390 29.521 28.435
621 12 20 -0.03045 13.801 29.086 27.620
622 12 62 -0.701006 13.610 29.397 29.661
623 12 28 0.393337 14.153 29.831 30.319
624 12 5 -0.115738 15.697 28.729 28.585
625 12 26 0.047276 16.407 29.166 27.838
626 12 26 0.047276 16.088 28.893 29.603
627 12 5 0.088994 15.766 27.260 28.134
628 12 20 0.044009 15.528 27.264 27.033
629 12 62 -0.611546 14.756 26.496 28.937
630 12 28 0.382585 15.089 26.689 29.827
631 12 5 0.004558 17.169 26.700 28.306
632 12 26 0.03131 17.848 27.334 27.756
633 12 26 0.03131 17.464 26.623 29.350
634 12 5 0.079508 17.308 25.273 27.636
635 12 20 0.080143 17.096 25.396 26.565
636 12 62 -0.631524 16.338 24.291 28.066
637 12 28 0.40298 16.688 23.404 27.917
638 12 5 0.049683 18.812 24.710 27.779
639 12 26 0.011055 19.516 25.508 27.954
640 12 26 0.011055 18.968 24.075 28.663
641 12 5 0.082195 19.327 23.946 26.520
642 12 20 0.133927 19.533 24.747 25.707
643 12 63 -0.453154 18.254 23.056 26.072
644 12 79 1.1499 18.073 22.866 24.507
645 12 61 -0.641597 17.466 24.106 24.122
646 12 61 -0.641597 19.471 22.637 24.059
647 12 61 -0.641597 17.269 21.635 24.472
648 12 5 -0.133392 20.664 23.278 26.722
649 12 26 0.109112 21.367 23.431 25.900
650 12 26 0.109112 21.195 23.911 27.518
651 12 5 0.030565 20.620 21.886 27.215
652 12 20 0.146564 19.877 21.287 26.644
653 12 63 -0.403762 20.475 21.951 28.607
654 12 79 1.146494 19.843 20.707 29.466
655 12 61 -0.640762 19.193 19.858 28.493
656 12 61 -0.640762 21.027 20.117 30.060
657 12 61 -0.640762 18.933 21.229 30.398
658 12 5 -0.134227 21.998 21.143 26.937
659 12 26 0.033347 21.844 20.049 27.059
660 12 26 0.033347 22.261 21.269 25.918
661 12 5 0.421544 23.262 21.528 27.812
662 12 20 0.061041 23.138 21.210 28.870
663 12 63 -0.496054 23.421 22.977 27.732
664 12 79 1.197211 24.309 23.711 28.835
665 12 61 -0.675044 23.935 23.051 30.131
666 12 61 -0.675044 23.793 25.075 28.784
667 12 61 -0.675044 25.732 23.557 28.567
668 12 26 0.039779 15.077 31.487 28.947
669 12 5 -0.04737 24.466 20.924 27.090
670 12 26 -0.012108 25.354 20.955 27.620
671 12 26 -0.012108 24.599 21.323 26.068
672 12 26 -0.012108 24.304 19.837 26.994
673 13 5 -0.213032 3.967 27.103 12.696
674 13 26 0.039779 2.965 26.710 12.963
675 13 26 0.039779 3.693 28.001 12.054
676 13 5 0.401013 4.633 25.944 11.876
677 13 20 -0.03045 3.958 25.674 11.058
678 13 62 -0.701006 4.760 24.782 12.747
679 13 28 0.393337 5.319 25.092 13.460
680 13 5 -0.115738 6.012 26.292 11.294
681 13 26 0.047276 5.952 27.367 10.988
682 13 26 0.047276 6.765 26.178 12.092
683 13 5 0.088994 6.453 25.695 9.947
684 13 20 0.044009 5.698 26.046 9.190
685 13 62 -0.611546 6.463 24.202 10.099
686 13 28 0.382585 7.092 24.126 10.831
687 13 5 0.004558 7.814 26.231 9.531
688 13 26 0.03131 7.751 27.308 9.505
689 13 26 0.03131 8.614 25.901 10.190
690 13 5 0.079508 8.174 25.806 8.048
691 13 20 0.080143 7.401 26.230 7.393
692 13 62 -0.631524 8.109 24.387 7.780
693 13 28 0.40298 8.668 24.177 7.021
694 13 5 0.049683 9.594 26.421 7.599
695 13 26 0.011055 9.863 27.275 8.201
696 13 26 0.011055 10.447 25.749 7.772
697 13 5 0.082195 9.637 26.905 6.118
698 13 20 0.133927 9.017 27.885 6.071
699 13 63 -0.453154 8.995 25.878 5.297
700 13 79 1.1499 8.118 26.370 4.068
701 13 61 -0.641597 6.938 26.861 4.719
702 13 61 -0.641597 9.006 27.382 3.440
703 13 61 -0.641597 8.037 25.134 3.277
704 13 5 -0.133392 11.011 27.323 5.654
705 13 26 0.109112 11.027 28.262 5.099
706 13 26 0.109112 11.550 27.677 6.602
707 13 5 0.030565 11.835 26.257 5.045
708 13 20 0.146564 11.244 25.676 4.303
709 13 63 -0.403762 12.433 25.553 6.098
710 13 79 1.146494 12.955 24.011 5.917
711 13 61 -0.640762 12.328 23.532 4.706
712 13 61 -0.640762 14.389 24.187 5.805
713 13 61 -0.640762 12.554 23.273 7.042
714 13 5 -0.134227 13.017 26.878 4.185
715 13 26 0.033347 13.437 26.084 3.530
716 13 26 0.033347 12.619 27.599 3.517
717 13 5 0.421544 14.242 27.544 4.939
718 13 20 0.061041 14.844 26.787 5.487
719 13 63 -0.496054 13.696 28.528 5.870
720 13 79 1.197211 14.614 29.039 7.069
721 13 61 -0.675044 15.306 27.805 7.575
722 13 61 -0.675044 13.625 29.507 8.033
723 13 61 -0.675044 15.584 30.028 6.619
724 13 26 0.039779 4.566 27.308 13.529
725 13 5 -0.04737 15.004 28.335 3.877
726 13 26 -0.012108 15.922 28.702 4.180
727 13 26 -0.012108 14.393 29.129 3.410
728 13 26 -0.012108 15.300 27.640 3.072
729 14 5 -0.213032 12.410 6.737 25.640
730 14 26 0.039779 12.303 6.350 26.673
731 14 26 0.039779 13.528 6.940 25.588
732 14 5 0.401013 11.545 8.045 25.623
733 14 20 -0.03045 11.884 8.687 26.443