LAMMPS Description

6574  atoms
5338  bonds
7038  angles
8415  dihedrals
306  impropers

90  atom types
840  bond types
4614  angle types
985  dihedral types
38  improper types

-0.5 45.5 xlo xhi
-0.5 45.5 ylo yhi
-0.5 45.5 zlo zhi

Masses

1 12.01
2 12.01
3 12.01
4 12.01
5 12.01
6 12.01
7 12.01
8 12.01
9 12.01
10 12.01
11 12.01
12 12.01
13 12.01
14 12.01
15 12.01
16 12.01
17 12.01
18 12.01
19 12.01
20 1.008
21 1.008
22 1.008
23 1.008
24 1.008
25 1.008
26 1.008
27 1.008
28 1.008
29 1.008
30 1.008
31 1.008
32 1.008
33 19.00
34 35.45
35 79.90
36 126.9
37 14.01
38 14.01
39 14.01
40 14.01
41 14.01
42 14.01
43 14.01
44 14.01
45 14.01
46 14.01
47 14.01
48 14.01
49 14.01
50 14.01
51 14.01
52 14.01
53 14.01
54 14.01
55 14.01
56 14.01
57 14.01
58 14.01
59 14.01
60 14.01
61 16.00
62 16.00
63 16.00
64 16.00
65 30.97
66 30.97
67 30.97
68 30.97
69 30.97
70 30.97
71 30.97
72 30.97
73 30.97
74 30.97
75 30.97
76 32.06
77 32.06
78 32.06
79 32.06
80 32.06
81 32.06
82 32.06
83 32.06
84 6.94
85 39.10
86 22.99
87 35.45
88 19.00
89 79.90
90 126.9

Atoms

1 1 5 -0.09344 13.374690 1.599378 12.251826
2 1 26 0.035118 13.134523 0.732117 12.904170
3 1 26 0.035118 12.861601 1.432986 11.276838
4 1 5 0.036984 12.916625 2.931797 12.900213
5 1 5 -0.09344 11.384261 2.807674 13.076784
6 1 26 0.035118 11.123130 2.042188 13.837517
7 1 26 0.035118 10.898983 2.511328 12.120045
8 1 26 0.035118 10.919537 3.782559 13.312410
9 1 1 0.688061 13.203542 4.009187 11.838075
10 1 61 -0.542596 14.359168 4.199783 11.482216
11 1 63 -0.317496 12.169603 4.614985 11.169388
12 1 5 -0.024694 12.250303 5.297950 9.957074
13 1 20 0.116304 13.306316 5.438213 9.646509
14 1 20 0.116304 11.751761 4.659688 9.202980
15 1 5 -0.142941 11.509641 6.657971 10.021121
16 1 32 0.134731 12.021412 7.266660 10.788073
17 1 32 0.134731 10.483340 6.468698 10.410704
18 1 41 0.013876 11.409565 7.413307 8.722261
19 1 5 -0.13938 12.734437 7.640714 8.094808
20 1 32 0.127846 13.209039 6.688321 7.779749
21 1 32 0.127846 13.426966 8.165953 8.778845
22 1 32 0.127846 12.642034 8.268369 7.179131
23 1 5 -0.13938 10.787803 8.736214 8.984624
24 1 32 0.127846 10.644117 9.315354 8.043748
25 1 32 0.127846 11.424167 9.363654 9.634480
26 1 32 0.127846 9.793452 8.629359 9.472664
27 1 5 -0.13938 10.539723 6.701029 7.755979
28 1 32 0.127846 10.976184 5.731255 7.443010
29 1 32 0.127846 10.403800 7.299338 6.825132
30 1 32 0.127846 9.530270 6.517012 8.186027
31 1 5 0.027787 13.736608 3.057968 14.289072
32 1 26 0.014377 13.621128 2.061007 14.770987
33 1 26 0.014377 14.808033 3.131992 13.999767
34 1 5 0.089535 13.517450 4.077802 15.507197
35 1 5 0.053431 12.064031 3.862578 16.015724
36 1 26 -0.004779 11.732447 4.491151 16.840229
37 1 26 -0.004779 11.903024 2.803390 16.312979
38 1 26 -0.004779 11.321300 4.143422 15.269613
39 1 1 0.342246 13.684370 5.520343 15.046076
40 1 61 -0.446344 13.539486 6.427543 15.846919
41 1 63 -0.300104 13.906853 5.798943 13.736736
42 1 5 0.004912 14.408923 6.946465 13.142050
43 1 20 0.105203 15.492792 7.007557 13.366080
44 1 20 0.105203 14.300388 6.811242 12.048453
45 1 5 -0.073441 13.696616 8.250354 13.573777
46 1 32 0.139671 13.936059 8.402122 14.646141
47 1 32 0.139671 12.594343 8.103272 13.505188
48 1 41 0.021043 14.097246 9.476162 12.807129
49 1 5 -0.136418 15.562013 9.545728 12.567643
50 1 32 0.12817 15.882653 8.804872 11.801865
51 1 32 0.12817 16.144124 9.289222 13.462284
52 1 32 0.12817 15.870630 10.548117 12.196792
53 1 5 -0.136418 13.639280 10.667391 13.562175
54 1 32 0.12817 13.927274 11.613847 13.052737
55 1 32 0.12817 14.061366 10.689148 14.576219
56 1 32 0.12817 12.532264 10.664367 13.685508
57 1 5 -0.136418 13.424127 9.515858 11.498454
58 1 32 0.12817 13.751649 8.669906 10.870813
59 1 32 0.12817 13.669190 10.450829 10.944790
60 1 32 0.12817 12.321795 9.476389 11.632036
61 1 5 0.070225 14.584742 3.696903 16.687978
62 1 26 -0.037075 14.304707 2.662570 16.986390
63 1 26 -0.037075 15.599170 3.615055 16.241044
64 1 5 0.048012 14.775129 4.509102 18.072122
65 1 5 -0.070214 13.382658 4.911848 18.639602
66 1 26 0.050326 13.455683 5.396845 19.637300
67 1 26 0.050326 12.732016 4.020603 18.774205
68 1 26 0.050326 12.895742 5.689735 18.029734
69 1 1 0.398379 15.536140 5.839509 17.939105
70 1 61 -0.44145 15.650577 6.502311 18.958331
71 1 63 -0.273148 16.045065 6.311306 16.759222
72 1 5 -0.022225 16.560478 7.584630 16.444163
73 1 20 0.108766 17.642251 7.444265 16.258667
74 1 20 0.108766 16.114792 7.902237 15.485457
75 1 5 -0.042085 16.300836 8.730793 17.490434
76 1 32 0.123655 16.701089 8.408660 18.455314
77 1 32 0.123655 15.199463 8.830853 17.626703
78 1 41 -0.017049 16.909373 10.077725 17.213949
79 1 5 -0.06158 18.330906 9.982694 16.801645
80 1 32 0.099286 18.440918 9.461919 15.826092
81 1 32 0.099286 18.939076 9.455926 17.561564
82 1 32 0.099286 18.779298 10.991720 16.666460
83 1 5 -0.06158 16.828927 10.892269 18.450434
84 1 32 0.099286 17.260032 11.907868 18.302977
85 1 32 0.099286 17.390407 10.419401 19.269718
86 1 32 0.099286 15.775616 11.004971 18.792842
87 1 5 -0.06158 16.157862 10.810592 16.186215
88 1 32 0.099286 16.194367 10.273939 15.241613
89 1 32 0.099286 16.593983 11.819582 16.004230
90 1 32 0.099286 15.099760 10.950062 16.497766
91 1 5 -0.28579 16.785659 1.551668 18.880493
92 1 26 0.084372 15.889514 0.937894 19.112131
93 1 26 0.084372 16.805466 1.752901 17.788555
94 1 5 0.006458 16.765133 2.878775 19.668824
95 1 1 -0.029374 18.066254 3.622576 19.396429
96 1 61 -0.18442 19.125102 3.016307 19.506936
97 1 63 -0.000363 18.088007 4.960992 19.207340
98 1 5 -0.092975 19.235831 5.724473 19.358598
99 1 20 0.087372 19.998508 5.488333 18.584902
100 1 20 0.087372 19.666954 5.508711 20.334470
101 1 5 0.030944 18.840403 7.181130 19.334782
102 1 20 0.067652 18.598699 7.387616 18.285779
103 1 20 0.067652 17.935834 7.288195 19.971652
104 1 63 -0.285021 19.838458 8.054630 19.753512
105 1 1 0.605908 19.590656 9.133328 20.564790
106 1 5 -0.232196 15.409808 3.665412 19.296279
107 1 26 0.134336 14.629149 2.903006 19.524078
108 1 26 0.134336 15.343651 4.414203 20.108779
109 1 61 -0.520489 18.473591 9.299311 21.036050
110 1 5 0.139497 20.630892 10.227335 20.784807
111 1 5 -0.167102 21.974691 9.833394 20.133268
112 1 26 0.052656 22.735372 10.627023 20.293343
113 1 26 0.052656 21.845049 9.701362 19.036306
114 1 26 0.052656 22.364607 8.868807 20.487283
115 1 5 -0.167102 20.129340 11.479309 20.019251
116 1 26 0.052656 20.003690 11.261224 18.937133
117 1 26 0.052656 20.846607 12.322088 20.116667
118 1 26 0.084372 17.679213 0.941758 19.116902
119 1 5 -0.044378 17.853030 0.565761 22.108728
120 1 26 0.024723 16.878458 0.034216 22.135682
121 1 26 0.024723 18.330609 0.388697 21.128233
122 1 5 0.190325 17.657112 2.076721 22.358322
123 1 1 0.471673 18.984008 2.806356 22.364575
124 1 61 -0.462293 20.047859 2.215428 22.229517
125 1 63 -0.218161 18.959994 4.133105 22.587378
126 1 5 -0.168922 20.032992 4.950133 22.848912
127 1 20 0.162013 20.781684 4.920314 22.032442
128 1 20 0.162013 20.551062 4.612681 23.765116
129 1 5 0.003916 19.435614 6.333735 23.019650
130 1 20 0.090407 18.894674 6.624510 22.099299
131 1 20 0.090407 18.679900 6.284435 23.817414
132 1 63 -0.111986 20.381367 7.290138 23.305981
133 1 1 -0.008443 20.022755 8.585276 23.508126
134 1 5 -0.104696 16.654692 2.666316 21.265491
135 1 26 0.070165 15.693580 2.129070 21.430716
136 1 26 0.070165 16.520676 3.701507 21.645032
137 1 61 -0.360148 18.840125 8.883107 23.631481
138 1 5 0.015227 21.055641 9.684624 23.512114
139 1 5 -0.027558 22.486864 9.119876 23.364544
140 1 26 0.031837 23.227652 9.945278 23.298935
141 1 26 0.031837 22.581669 8.475085 22.483045
142 1 26 0.031837 22.789194 8.459357 24.181543
143 1 5 -0.021337 20.750227 10.662373 22.307041
144 1 26 0.035615 19.760289 11.114720 22.545742
145 1 26 0.035615 21.484810 11.497439 22.356164
146 1 26 0.024723 18.519860 0.095623 22.847781
147 1 5 -0.019422 18.090380 0.715402 25.449426
148 1 26 0.016009 17.277061 -0.005707 25.222795
149 1 26 0.016009 19.002372 0.470354 24.874878
150 1 5 -0.002137 17.624916 2.151302 25.181988
151 1 1 0.696696 18.695366 3.172879 25.583398
152 1 61 -0.554869 19.850526 2.799110 25.745875
153 1 63 -0.373459 18.354166 4.463368 25.900324
154 1 5 -0.061606 19.273162 5.388853 26.396730
155 1 20 0.141709 20.100614 5.487003 25.672312
156 1 20 0.141709 19.714505 5.041864 27.356349
157 1 5 -0.168159 18.671101 6.789981 26.584329
158 1 20 0.170199 18.068943 7.048545 25.692996
159 1 20 0.170199 17.992193 6.838555 27.462235
160 1 63 -0.274282 19.710681 7.703343 26.689908
161 1 1 0.690004 19.600528 9.044484 26.469276
162 1 5 -0.075391 16.956255 2.352197 23.771369
163 1 26 0.003936 16.021411 1.748926 23.777039
164 1 26 0.003936 16.631375 3.416271 23.800691
165 1 61 -0.60894 18.494596 9.553282 26.336235
166 1 5 0.174554 20.853064 9.910584 26.296358
167 1 5 -0.097163 20.764504 11.086456 27.300105
168 1 26 0.028372 19.870102 11.716763 27.101553
169 1 26 0.028372 21.661348 11.740026 27.223590
170 1 26 0.028372 20.694648 10.716438 28.345808
171 1 5 -0.062472 20.923353 10.539577 24.843822
172 1 26 0.047267 19.979759 11.125048 24.759016
173 1 26 0.047267 21.746059 11.289842 24.824102
174 1 26 0.016009 18.351797 0.607720 26.525244
175 1 26 0.035118 14.468885 1.598991 12.060375
176 1 26 0.052656 19.144974 11.823974 20.405404
177 1 26 0.046259 16.806402 2.313620 25.919706
178 1 5 -0.097163 22.112871 9.102367 26.663515
179 1 26 0.028372 22.084319 8.813888 27.736710
180 1 26 0.028372 23.032261 9.703355 26.491970
181 1 26 0.028372 22.165640 8.147680 26.113028
182 2 5 -0.09344 12.783931 23.329554 35.664284
183 2 26 0.035118 12.196729 24.183913 35.263487
184 2 26 0.035118 12.772049 23.411353 36.775462
185 2 5 0.036984 12.188801 21.974368 35.200754
186 2 5 -0.09344 10.746144 21.936454 35.759348
187 2 26 0.035118 10.098433 22.690502 35.264622
188 2 26 0.035118 10.739504 22.150925 36.851421
189 2 26 0.035118 10.307722 20.924025 35.691047
190 2 1 0.688061 13.025413 20.904572 35.926594
191 2 61 -0.542596 14.225116 20.830424 35.694972
192 2 63 -0.317496 12.475957 20.171286 36.948140
193 2 5 -0.024694 13.168125 19.466751 37.931600
194 2 20 0.116304 14.254799 19.433104 37.709579
195 2 20 0.116304 13.027116 20.025330 38.876421
196 2 5 -0.142941 12.598372 18.036772 38.112926
197 2 32 0.134731 12.742598 17.509382 37.152881
198 2 32 0.134731 11.497023 18.124603 38.255088
199 2 41 0.013876 13.177551 17.238233 39.250673
200 2 5 -0.13938 14.655887 17.138114 39.178586
201 2 32 0.127846 15.141862 18.126994 39.310898
202 2 32 0.127846 14.991074 16.710895 38.214993
203 2 32 0.127846 15.052830 16.478231 39.983536
204 2 5 -0.13938 12.617144 15.863704 39.204663
205 2 32 0.127846 12.976616 15.245743 40.059181
206 2 32 0.127846 12.927226 15.327857 38.289418
207 2 32 0.127846 11.504929 15.875918 39.238791
208 2 5 -0.13938 12.802062 17.824002 40.559699
209 2 32 0.127846 13.252017 18.826074 40.709035
210 2 32 0.127846 13.165292 17.188123 41.400322
211 2 32 0.127846 11.697151 17.909594 40.657916
212 2 5 0.027787 12.275044 21.977668 33.585275
213 2 26 0.014377 11.866315 22.969568 33.287648
214 2 26 0.014377 13.359912 22.012121 33.342369
215 2 5 0.089535 11.599234 20.975299 32.531493
216 2 5 0.053431 10.064021 21.045962 32.767022
217 2 26 -0.004779 9.440020 20.408935 32.142779
218 2 26 -0.004779 9.696006 22.089480 32.658399
219 2 26 -0.004779 9.780278 20.664968 33.747603
220 2 1 0.342246 12.080515 19.546809 32.753314
221 2 61 -0.446344 11.655115 18.652499 32.042964
222 2 63 -0.300104 12.909288 19.256700 33.787945
223 2 5 0.004912 13.723620 18.153921 33.995966
224 2 20 0.105203 14.579358 18.217243 33.294256
225 2 20 0.105203 14.125998 18.245263 35.023472
226 2 5 -0.073441 13.002998 16.793302 33.843269
227 2 32 0.139671 12.727221 16.699120 32.773032
228 2 32 0.139671 12.051544 16.817872 34.422470
229 2 41 0.021043 13.814509 15.596809 34.244162
230 2 5 -0.136418 15.222381 15.679802 33.776464
231 2 32 0.12817 15.800092 16.428894 34.362302
232 2 32 0.12817 15.297458 16.023425 32.736599
233 2 32 0.12817 15.750017 14.706642 33.886537
234 2 5 -0.136418 13.158106 14.384980 33.696933
235 2 32 0.12817 13.727467 13.461200 33.943317
236 2 32 0.12817 13.059639 14.438142 32.604050
237 2 32 0.12817 12.125042 14.271371 34.097653
238 2 5 -0.136418 13.834071 15.446920 35.708554
239 2 32 0.12817 14.344818 16.305138 36.176996
240 2 32 0.12817 14.385248 14.528630 36.014687
241 2 32 0.12817 12.797342 15.370327 36.100812
242 2 5 0.070225 11.958262 21.503358 31.024612
243 2 26 -0.037075 11.486893 22.509294 30.967874
244 2 26 -0.037075 13.053394 21.682009 30.959169
245 2 5 0.048012 11.548796 20.756503 29.651180
246 2 5 -0.070214 10.091025 20.221399 29.759724
247 2 26 0.050326 9.730987 19.775899 28.806908
248 2 26 0.050326 9.381244 21.040250 30.007643
249 2 26 0.050326 10.010417 19.378157 30.464408
250 2 1 0.398379 12.391464 19.513287 29.317805
251 2 61 -0.44145 12.072620 18.896215 28.313423
252 2 63 -0.273148 13.428345 19.065987 30.091448
253 2 5 -0.022225 14.134654 17.847639 30.036467
254 2 20 0.108766 15.162542 18.099215 29.713207
255 2 20 0.108766 14.214672 17.456276 31.065573
256 2 5 -0.042085 13.513658 16.710435 29.143764
257 2 32 0.123655 13.390359 17.101541 28.130453
258 2 32 0.123655 12.488082 16.495375 29.522639
259 2 41 -0.017049 14.290153 15.430152 29.006224
260 2 5 -0.06158 15.726767 15.667073 28.723751
261 2 32 0.099286 16.234802 16.168621 29.575433
262 2 32 0.099286 15.865146 16.278228 27.811516
263 2 32 0.099286 16.268375 14.709219 28.560529
264 2 5 -0.06158 13.711006 14.647355 27.887893
265 2 32 0.099286 14.243641 13.680743 27.742986
266 2 32 0.099286 13.785071 15.201580 26.940560
267 2 32 0.099286 12.632841 14.430839 28.061354
268 2 5 -0.06158 14.167252 14.590991 30.205725
269 2 32 0.099286 14.594794 15.101224 31.065070
270 2 32 0.099286 14.719837 13.630504 30.089550
271 2 32 0.099286 13.101450 14.346474 30.406659
272 2 5 -0.28579 12.698874 23.936544 28.234578
273 2 26 0.084372 11.750584 24.455807 28.488671
274 2 26 0.084372 13.241433 23.707531 29.176065
275 2 5 0.006458 12.423656 22.638119 27.446259
276 2 1 -0.029374 13.758517 22.032437 27.031954
277 2 61 -0.18442 14.589785 22.752944 26.492699
278 2 63 -0.000363 13.976601 20.699433 27.087864
279 2 5 -0.092975 14.980759 20.069663 26.367906
280 2 20 0.087372 15.993442 20.364973 26.719057
281 2 20 0.087372 14.888352 20.358735 25.322609
282 2 5 0.030944 14.764105 18.578614 26.460713
283 2 20 0.067652 15.056692 18.317227 27.484205
284 2 20 0.067652 13.679419 18.392255 26.305675
285 2 63 -0.285021 15.520874 17.830910 25.564783
286 2 1 0.605908 15.014140 16.755315 24.879593
287 2 5 -0.232196 11.468117 21.698720 28.340109
288 2 26 0.134336 10.611056 22.378099 28.555690
289 2 26 0.134336 11.093532 20.970697 27.595201
290 2 61 -0.520489 13.824219 16.482618 24.964395
291 2 5 0.139497 15.918867 15.787397 24.123317
292 2 5 -0.167102 17.373623 16.306067 24.110864
293 2 26 0.052656 18.035063 15.604578 23.559033
294 2 26 0.052656 17.759235 16.391851 25.150821
295 2 26 0.052656 17.472432 17.316991 23.691273
296 2 5 -0.167102 15.937129 14.467025 24.936555
297 2 26 0.052656 16.312217 14.639177 25.968059
298 2 26 0.052656 16.593564 13.710195 24.456411
299 2 26 0.084372 13.325577 24.646329 27.660325
300 2 5 -0.044378 12.054501 25.124304 24.962452
301 2 26 0.024723 11.139228 25.547496 25.427468
302 2 26 0.024723 12.917172 25.324061 25.623285
303 2 5 0.190325 11.890828 23.608759 24.717474
304 2 1 0.471673 13.117479 23.027911 24.045907
305 2 61 -0.462293 14.068768 23.726701 23.720395
306 2 63 -0.218161 13.102483 21.713304 23.759442
307 2 5 -0.168922 13.993800 21.025357 22.972331
308 2 20 0.162013 15.031170 21.112908 23.352135
309 2 20 0.162013 13.995704 21.443080 21.949002
310 2 5 0.003916 13.502568 19.590544 22.991545
311 2 20 0.090407 13.478577 19.216602 24.032604
312 2 20 0.090407 12.461167 19.580315 22.637510
313 2 63 -0.111986 14.281770 18.751001 22.230523
314 2 1 -0.008443 13.978962 17.430902 22.118744
315 2 5 -0.104696 11.565293 22.882874 26.100900
316 2 26 0.070165 10.597025 23.317144 26.437848
317 2 26 0.070165 11.356242 21.850523 25.748506
318 2 61 -0.360148 12.904187 17.010134 22.531474
319 2 5 0.015227 14.978244 16.450706 21.556530
320 2 5 -0.027558 16.261217 17.162992 21.070994
321 2 26 0.031837 17.012846 16.421323 20.725538
322 2 26 0.031837 16.701787 17.788810 21.855873
323 2 26 0.031837 16.092464 17.875494 20.259182
324 2 5 -0.021337 15.351256 15.411554 22.689004
325 2 26 0.035615 14.405352 14.861454 22.899310
326 2 26 0.035615 16.044796 14.662888 22.244190
327 2 26 0.024723 12.258973 25.684957 24.037384
328 2 5 -0.019422 10.720503 25.096824 21.886954
329 2 26 0.016009 10.049683 25.718638 22.516395
330 2 26 0.016009 11.771281 25.422881 21.993898
331 2 5 -0.002137 10.553860 23.611839 22.229060
332 2 1 0.696696 11.394746 22.724355 21.303915
333 2 61 -0.554869 12.305935 23.225768 20.656756
334 2 63 -0.373459 11.053449 21.414045 21.082948
335 2 5 -0.061606 11.708697 20.608324 20.150769
336 2 20 0.141709 12.783200 20.579893 20.403207
337 2 20 0.141709 11.621992 21.028438 19.125079
338 2 5 -0.168159 11.206940 19.156069 20.155896
339 2 20 0.170199 11.112831 18.808321 21.201907
340 2 20 0.170199 10.204004 19.059209 19.688208
341 2 63 -0.274282 12.149410 18.364313 19.514822
342 2 1 0.690004 12.266186 17.013385 19.659145
343 2 5 -0.075391 10.638171 23.299339 23.769369
344 2 26 0.003936 9.761870 23.797508 24.240353
345 2 26 0.003936 10.426415 22.207568 23.812422
346 2 61 -0.60894 11.395850 16.383979 20.247384
347 2 5 0.174554 13.522051 16.283746 19.169955
348 2 5 -0.097163 13.074056 15.134372 18.233865
349 2 26 0.028372 12.430667 14.405309 18.773479
350 2 26 0.028372 13.954029 14.580075 17.839228
351 2 26 0.028372 12.494946 15.524352 17.369090
352 2 5 -0.062472 14.312428 15.624850 20.374776
353 2 26 0.047267 13.569019 14.938251 20.839819
354 2 26 0.047267 15.108643 14.968044 19.956709
355 2 26 0.016009 10.440985 25.262937 20.823190
356 2 26 0.035118 13.837134 23.443215 35.329977
357 2 26 0.052656 14.918556 14.028745 25.022024
358 2 26 0.046259 9.502615 23.382797 21.941025
359 2 5 -0.097163 14.394151 17.234069 18.326474
360 2 26 0.028372 13.845386 17.548293 17.412195
361 2 26 0.028372 15.333881 16.731752 18.009496
362 2 26 0.028372 14.617882 18.172722 18.861377
363 3 5 -0.09344 29.378991 42.420688 15.402882
364 3 26 0.035118 30.152817 42.868752 14.742726
365 3 26 0.035118 29.326393 43.045844 16.323730
366 3 5 0.036984 28.001799 42.362173 14.691905
367 3 5 -0.09344 27.635977 43.829626 14.364065
368 3 26 0.035118 28.311850 44.254695 13.592454
369 3 26 0.035118 27.716089 44.469014 15.271496
370 3 26 0.035118 26.575644 43.930410 14.068384
371 3 1 0.688061 27.025078 41.839056 15.761295
372 3 61 -0.542596 27.198826 40.721093 16.228632
373 3 63 -0.317496 26.089196 42.677099 16.313538
374 3 5 -0.024694 25.412470 42.489460 17.517487
375 3 20 0.116304 25.603998 41.477519 17.930503
376 3 20 0.116304 25.821234 43.233737 18.227095
377 3 5 -0.142941 23.891292 42.740933 17.359007
378 3 32 0.134731 23.515346 41.992610 16.638379
379 3 32 0.134731 23.759342 43.733622 16.871101
380 3 41 0.013876 23.084088 42.707939 18.629801
381 3 5 -0.13938 23.264636 41.443185 19.383788
382 3 32 0.127846 24.303156 41.332988 19.759149
383 3 32 0.127846 23.021746 40.559125 18.765063
384 3 32 0.127846 22.598542 41.409697 20.276062
385 3 5 -0.13938 21.645399 42.841537 18.286537
386 3 32 0.127846 21.007579 42.874331 19.199449
387 3 32 0.127846 21.286218 41.980373 17.694643
388 3 32 0.127846 21.450317 43.768560 17.702665
389 3 5 -0.13938 23.433896 43.845039 19.514280
390 3 32 0.127846 24.476723 43.776204 19.883986
391 3 32 0.127846 22.780900 43.863411 20.417708
392 3 32 0.127846 23.304263 44.816504 18.987733
393 3 5 0.027787 28.210167 41.423624 13.390779
394 3 26 0.014377 29.138739 41.811636 12.914641
395 3 26 0.014377 28.470292 40.416693 13.785183
396 3 5 0.089535 27.231868 41.189851 12.141699
397 3 5 0.053431 26.993022 42.582468 11.492918
398 3 26 -0.004779 26.330460 42.616800 10.629962
399 3 26 -0.004779 27.957255 43.050181 11.196837
400 3 26 -0.004779 26.454344 43.258442 12.156310
401 3 1 0.342246 25.899234 40.607255 12.595667
402 3 61 -0.446344 25.031861 40.377678 11.770857
403 3 63 -0.300104 25.645999 40.425759 13.916432
404 3 5 0.004912 24.693727 39.635087 14.541369
405 3 20 0.105203 24.994004 38.574265 14.426540
406 3 20 0.105203 24.735867 39.879846 15.620414
407 3 5 -0.073441 23.251882 39.844825 14.020801
408 3 32 0.139671 23.235087 39.473335 12.975792
409 3 32 0.139671 23.034297 40.936781 13.980428
410 3 41 0.021043 22.184999 39.139874 14.805445
411 3 5 -0.136418 22.577820 37.759430 15.189893
412 3 32 0.12817 23.345832 37.766455 15.995004
413 3 32 0.12817 23.048881 37.213439 14.362230
414 3 32 0.12817 21.711234 37.177731 15.574877
415 3 5 -0.136418 20.946380 39.117345 13.990480
416 3 32 0.12817 20.119633 38.585692 14.512095
417 3 32 0.12817 21.108438 38.621197 13.023790
418 3 32 0.12817 20.599936 40.149798 13.756551
419 3 5 -0.136418 21.870558 39.879162 16.039088
420 3 32 0.12817 22.746640 39.901256 16.709037
421 3 32 0.12817 21.038846 39.395654 16.600555
422 3 32 0.12817 21.560572 40.918077 15.795977
423 3 5 0.070225 27.989557 40.201338 11.080007
424 3 26 -0.037075 28.892154 40.773003 10.770439
425 3 26 -0.037075 28.371513 39.312788 11.627822
426 3 5 0.048012 27.346778 39.634077 9.710037
427 3 5 -0.070214 26.545613 40.763898 8.999505
428 3 26 0.050326 26.156721 40.448003 8.007070
429 3 26 0.050326 27.186346 41.653076 8.813506
430 3 26 0.050326 25.625119 41.025716 9.545652
431 3 1 0.398379 26.326061 38.498628 9.898994
432 3 61 -0.44145 25.783245 38.084220 8.886650
433 3 63 -0.273148 25.987961 37.973116 11.116881
434 3 5 -0.022225 24.933991 37.103895 11.463101
435 3 20 0.108766 25.405090 36.147254 11.758476
436 3 20 0.108766 24.445896 37.507402 12.367299
437 3 5 -0.042085 23.815187 36.882871 10.379029
438 3 32 0.123655 24.293279 36.523061 9.464190
439 3 32 0.123655 23.373636 37.875466 10.131258
440 3 41 -0.017049 22.723247 35.898630 10.695137
441 3 5 -0.06158 23.249859 34.627801 11.249622
442 3 32 0.099286 23.732337 34.780892 12.238961
443 3 32 0.099286 23.978673 34.156931 10.562639
444 3 32 0.099286 22.432808 33.891026 11.414110
445 3 5 -0.06158 21.984502 35.599021 9.444802
446 3 32 0.099286 21.155116 34.877509 9.619663
447 3 32 0.099286 22.650117 35.149313 8.693263
448 3 32 0.099286 21.556015 36.523642 8.996602
449 3 5 -0.06158 21.741002 36.461961 11.631061
450 3 32 0.099286 22.216367 36.686628 12.582457
451 3 32 0.099286 20.917869 35.740981 11.840874
452 3 32 0.099286 21.284217 37.385215 11.212677
453 3 5 -0.28579 30.827094 38.625000 9.152125
454 3 26 0.084372 31.131115 39.646803 8.840770
455 3 26 0.084372 30.592179 38.639804 10.237395
456 3 5 0.006458 29.601782 38.143483 8.345991
457 3 1 -0.029374 29.302741 36.701849 8.736659
458 3 61 -0.18442 30.221040 35.890906 8.742216
459 3 63 -0.000363 28.034732 36.265119 8.906966
460 3 5 -0.092975 27.687653 34.923233 8.860471
461 3 20 0.087372 28.119597 34.351249 9.710354
462 3 20 0.087372 28.075529 34.498919 7.936211
463 3 5 0.030944 26.181686 34.826207 8.822658
464 3 20 0.067652 25.859929 35.081730 9.838849
465 3 20 0.067652 25.819962 35.585973 8.096557
466 3 63 -0.285021 25.694959 33.565603 8.493377
467 3 1 0.605908 24.632822 33.376491 7.645278
468 3 5 -0.232196 28.405547 39.198922 8.568618
469 3 26 0.134336 28.887038 40.160425 8.274912
470 3 26 0.134336 27.713827 38.945432 7.742491
471 3 61 -0.520489 24.139488 34.332271 7.061689
472 3 5 0.139497 23.941757 32.022716 7.514628
473 3 5 -0.167102 24.715062 30.943476 8.303760
474 3 26 0.052656 24.215705 29.955653 8.209126
475 3 26 0.052656 24.747256 31.207385 9.383983
476 3 26 0.052656 25.769141 30.856564 8.005180
477 3 5 -0.167102 22.560814 32.158890 8.207105
478 3 26 0.052656 22.676389 32.445559 9.274247
479 3 26 0.052656 21.998115 31.201701 8.169708
480 3 26 0.084372 31.701692 37.959544 9.015872
481 3 5 -0.044378 32.252594 37.647390 6.062623
482 3 26 0.024723 32.444130 38.734918 5.945781
483 3 26 0.024723 32.527573 37.343466 7.088694
484 3 5 0.190325 30.771989 37.320188 5.772061
485 3 1 0.471673 30.507603 35.833702 5.888325
486 3 61 -0.462293 31.401549 35.035256 6.138450
487 3 63 -0.218161 29.255152 35.406657 5.644447
488 3 5 -0.168922 28.838557 34.107949 5.479924
489 3 20 0.162013 29.068838 33.486201 6.367873
490 3 20 0.162013 29.366661 33.646533 4.625581
491 3 5 0.003916 27.345999 34.207206 5.229356
492 3 20 0.090407 26.854525 34.705648 6.086222
493 3 20 0.090407 27.187443 34.862872 4.360493
494 3 63 -0.111986 26.757897 32.980978 5.025293
495 3 1 -0.008443 25.427071 32.881163 4.768802
496 3 5 -0.104696 29.841774 38.172095 6.749662
497 3 26 0.070165 30.049465 39.236305 6.496703
498 3 26 0.070165 28.837167 37.928890 6.343153
499 3 61 -0.360148 24.771762 33.887426 4.522757
500 3 5 0.015227 24.718526 31.552091 4.852244
501 3 5 -0.027558 25.704948 30.400300 5.151354
502 3 26 0.031837 25.158634 29.441308 5.278763
503 3 26 0.031837 26.304255 30.599370 6.047451
504 3 26 0.031837 26.464862 30.255626 4.378841
505 3 5 -0.021337 23.639427 31.632010 6.005774
506 3 26 0.035615 22.905121 32.396350 5.662042
507 3 26 0.035615 23.087329 30.665372 6.018276
508 3 26 0.024723 32.945676 37.104823 5.401449
509 3 5 -0.019422 32.342869 37.073714 2.760845
510 3 26 0.016009 32.753636 38.093644 2.915316
511 3 26 0.016009 32.840413 36.346002 3.427753
512 3 5 -0.002137 30.822721 37.071370 2.958663
513 3 1 0.696696 30.218321 35.696207 2.651678
514 3 61 -0.554869 30.949982 34.714590 2.611744
515 3 63 -0.373459 28.902828 35.571134 2.282821
516 3 5 -0.061606 28.345185 34.361146 1.867542
517 3 20 0.141709 28.483956 33.615476 2.669921
518 3 20 0.141709 28.859726 33.971159 0.962439
519 3 5 -0.168159 26.835331 34.457616 1.599467
520 3 20 0.170199 26.356047 35.021522 2.421794
521 3 20 0.170199 26.612552 35.002019 0.657135
522 3 63 -0.274282 26.309615 33.173277 1.585295
523 3 1 0.690004 24.995251 32.862744 1.773682
524 3 5 -0.075391 30.352459 37.763477 4.291763
525 3 26 0.003936 30.623600 38.838733 4.201160
526 3 26 0.003936 29.242989 37.722308 4.214043
527 3 61 -0.60894 24.153010 33.751624 1.787264
528 3 5 0.174554 24.569567 31.418291 2.058677
529 3 5 -0.097163 23.475546 31.030360 1.033662
530 3 26 0.028372 22.583145 31.686592 1.131865
531 3 26 0.028372 23.141333 29.981006 1.190173
532 3 26 0.028372 23.851928 31.121513 -0.008122
533 3 5 -0.062472 23.929364 31.279625 3.501364
534 3 26 0.047267 23.068903 31.986432 3.482135
535 3 26 0.047267 23.482544 30.263662 3.592476
536 3 26 0.016009 32.578728 36.765216 1.718483
537 3 26 0.035118 29.721374 41.407566 15.703339
538 3 26 0.052656 21.937037 32.939528 7.718853
539 3 26 0.046259 30.441028 37.723093 2.140061
540 3 5 -0.097163 25.755330 30.460285 1.832131
541 3 26 0.028372 26.069103 30.483657 0.765930
542 3 26 0.028372 25.473662 29.415304 2.086231
543 3 26 0.028372 26.649752 30.769383 2.399330
544 4 5 -0.09344 31.377106 10.265428 28.650619
545 4 26 0.035118 32.353238 9.889390 29.026298
546 4 26 0.035118 30.764011 10.541527 29.539119
547 4 5 0.036984 31.570574 11.482831 27.709306
548 4 5 -0.09344 32.264912 12.569090 28.565263
549 4 26 0.035118 33.302178 12.275748 28.831535
550 4 26 0.035118 31.708812 12.739803 29.514092
551 4 26 0.035118 32.241843 13.556868 28.069630
552 4 1 0.688061 30.144042 11.957077 27.375654
553 4 61 -0.542596 29.390474 11.199411 26.778567
554 4 63 -0.317496 29.665325 13.132542 27.897456
555 4 5 -0.024694 28.327763 13.506701 28.014042
556 4 20 0.116304 27.664881 12.792431 27.483294
557 4 20 0.116304 28.083125 13.466875 29.092535
558 4 5 -0.142941 28.096586 14.953268 27.507744
559 4 32 0.134731 28.359495 14.963919 26.434714
560 4 32 0.134731 28.837117 15.613629 28.014135
561 4 41 0.013876 26.714528 15.511367 27.722279
562 4 5 -0.13938 25.657466 14.647112 27.142295
563 4 32 0.127846 25.600011 13.665911 27.657568
564 4 32 0.127846 25.822689 14.465564 26.063814
565 4 32 0.127846 24.653431 15.118945 27.243484
566 4 5 -0.13938 26.630776 16.844661 27.073576
567 4 32 0.127846 25.640221 17.323857 27.248131
568 4 32 0.127846 26.745087 16.771955 25.976945
569 4 32 0.127846 27.414279 17.534838 27.458429
570 4 5 -0.13938 26.434725 15.704601 29.165206
571 4 32 0.127846 26.398080 14.741147 29.712311
572 4 32 0.127846 25.442935 16.190396 29.317780
573 4 32 0.127846 27.202771 16.355815 29.638308
574 4 5 0.027787 32.458020 10.949806 26.466107
575 4 26 0.014377 33.296756 10.393648 26.942254
576 4 26 0.014377 31.834126 10.180956 25.959397
577 4 5 0.089535 33.187643 11.786219 25.308530
578 4 5 0.053431 34.178635 12.755411 26.012768
579 4 26 -0.004779 34.755373 13.420888 25.372946
580 4 26 -0.004779 34.896469 12.192318 26.648224
581 4 26 -0.004779 33.664649 13.497943 26.622416
582 4 1 0.342246 32.178232 12.592585 24.500890
583 4 61 -0.446344 32.566757 13.296729 23.585150
584 4 63 -0.300104 30.867276 12.595813 24.851424
585 4 5 0.004912 29.748352 12.954889 24.115485
586 4 20 0.105203 29.569122 12.171453 23.352073
587 4 20 0.105203 28.890341 12.942712 24.815263
588 4 5 -0.073441 29.847504 14.345800 23.445087
589 4 32 0.139671 30.638589 14.268997 22.671384
590 4 32 0.139671 30.200220 15.088415 24.197055
591 4 41 0.021043 28.582407 14.831758 22.801476
592 4 5 -0.136418 27.876544 13.761111 22.051007
593 4 32 0.12817 27.397451 13.031456 22.741056
594 4 32 0.12817 28.561265 13.157509 21.441209
595 4 32 0.12817 27.069467 14.174579 21.406624
596 4 5 -0.136418 28.922554 15.958126 21.899009
597 4 32 0.12817 28.023942 16.350096 21.372603
598 4 32 0.12817 29.654585 15.657628 21.136941
599 4 32 0.12817 29.387047 16.799076 22.462706
600 4 5 -0.136418 27.652886 15.361229 23.812884
601 4 32 0.12817 27.331555 14.559007 24.498468
602 4 32 0.12817 26.734319 15.778120 23.340438
603 4 32 0.12817 28.138803 16.175027 24.392676
604 4 5 0.070225 34.011369 10.734620 24.362985
605 4 26 -0.037075 34.758961 10.278214 25.048634
606 4 26 -0.037075 33.329797 9.906953 24.069830
607 4 5 0.048012 34.832695 11.125777 23.027250
608 4 5 -0.070214 35.616356 12.450076 23.262458
609 4 26 0.050326 36.267849 12.715677 22.401663
610 4 26 0.050326 36.286534 12.367424 24.145520
611 4 26 0.050326 34.945746 13.321481 23.333667
612 4 1 0.398379 33.958729 11.409520 21.793360