LAMMPS Description

5327  atoms
4318  bonds
5049  angles
6120  dihedrals
1122  impropers

90  atom types
840  bond types
4614  angle types
985  dihedral types
38  improper types

-0.5 40.5 xlo xhi
-0.5 40.5 ylo yhi
-0.5 40.5 zlo zhi

Masses

1 12.01
2 12.01
3 12.01
4 12.01
5 12.01
6 12.01
7 12.01
8 12.01
9 12.01
10 12.01
11 12.01
12 12.01
13 12.01
14 12.01
15 12.01
16 12.01
17 12.01
18 12.01
19 12.01
20 1.008
21 1.008
22 1.008
23 1.008
24 1.008
25 1.008
26 1.008
27 1.008
28 1.008
29 1.008
30 1.008
31 1.008
32 1.008
33 19.00
34 35.45
35 79.90
36 126.9
37 14.01
38 14.01
39 14.01
40 14.01
41 14.01
42 14.01
43 14.01
44 14.01
45 14.01
46 14.01
47 14.01
48 14.01
49 14.01
50 14.01
51 14.01
52 14.01
53 14.01
54 14.01
55 14.01
56 14.01
57 14.01
58 14.01
59 14.01
60 14.01
61 16.00
62 16.00
63 16.00
64 16.00
65 30.97
66 30.97
67 30.97
68 30.97
69 30.97
70 30.97
71 30.97
72 30.97
73 30.97
74 30.97
75 30.97
76 32.06
77 32.06
78 32.06
79 32.06
80 32.06
81 32.06
82 32.06
83 32.06
84 6.94
85 39.10
86 22.99
87 35.45
88 19.00
89 79.90
90 126.9

Atoms

1 1 5 -0.051233 25.484579 32.880057 24.127294
2 1 26 -0.000556 26.550015 33.177545 24.026846
3 1 26 -0.000556 25.304722 32.579023 25.181336
4 1 5 0.030247 25.153507 31.736325 23.155109
5 1 26 0.028561 25.393083 32.109487 22.134259
6 1 6 0.077933 23.668047 31.426985 23.252079
7 1 6 -0.200132 23.097391 30.950158 24.448379
8 1 25 0.120991 23.711965 30.772798 25.320968
9 1 6 -0.123165 21.723862 30.704508 24.530763
10 1 25 0.137797 21.300812 30.343865 25.459691
11 1 6 -0.043312 20.899021 30.933486 23.424961
12 1 79 1.139467 19.132117 30.648284 23.559172
13 1 6 -0.123165 21.456884 31.402122 22.230112
14 1 25 0.137797 20.830181 31.586975 21.367661
15 1 6 -0.200132 22.830740 31.647252 22.143470
16 1 25 0.120991 23.238356 32.018495 21.211667
17 1 61 -0.686299 18.459885 31.905072 24.515308
18 1 61 -0.686299 18.425556 30.662674 21.994038
19 1 61 -0.686299 18.876851 29.122381 24.302571
20 1 5 -0.167947 26.079639 30.522967 23.438733
21 1 26 0.053829 27.118553 30.922095 23.433744
22 1 26 0.053829 25.892321 30.121998 24.458223
23 1 5 0.061335 26.041854 29.378954 22.386141
24 1 26 0.066322 26.265541 29.838809 21.397228
25 1 6 0.022005 24.678981 28.711049 22.336870
26 1 6 -0.142215 24.146401 28.046546 23.457758
27 1 25 0.122111 24.706453 27.991599 24.381983
28 1 6 -0.138255 22.883470 27.449005 23.393046
29 1 25 0.125927 22.491588 26.943903 24.265696
30 1 6 -0.052124 22.135809 27.509026 22.210592
31 1 79 1.076745 20.509716 26.758073 22.109347
32 1 6 -0.138255 22.659393 28.164698 21.093070
33 1 25 0.125927 22.088356 28.216095 20.175001
34 1 6 -0.142215 23.920684 28.760855 21.153373
35 1 25 0.122111 24.302628 29.265898 20.275299
36 1 61 -0.647047 20.022594 26.228432 23.668565
37 1 61 -0.647047 19.407000 27.931499 21.519236
38 1 61 -0.647047 20.585257 25.431158 21.026329
39 1 5 -0.099102 27.201975 28.382015 22.683631
40 1 26 0.032456 28.131186 28.994020 22.695781
41 1 26 0.032456 27.091557 27.947911 23.700350
42 1 5 0.015778 27.428121 27.252340 21.636033
43 1 26 0.022425 27.509678 27.737986 20.637820
44 1 6 -0.035969 26.285664 26.251072 21.647950
45 1 6 -0.131756 25.995730 25.503620 22.806077
46 1 25 0.101496 26.571943 25.639494 23.711399
47 1 6 -0.139767 24.969626 24.558362 22.801270
48 1 25 0.14135 24.769577 23.984469 23.696867
49 1 6 -0.051918 24.215395 24.344142 21.645260
50 1 79 1.157597 22.927857 23.096760 21.659077
51 1 6 -0.139767 24.483648 25.092010 20.492176
52 1 25 0.14135 23.907713 24.936696 19.589869
53 1 6 -0.131756 25.511610 26.040520 20.492971
54 1 25 0.101496 25.712125 26.600635 19.588318
55 1 61 -0.691163 21.812706 23.484335 22.904936
56 1 61 -0.691163 22.133765 23.066594 20.136868
57 1 61 -0.691163 23.661561 21.575278 21.961614
58 1 5 -0.000586 28.799887 26.555159 21.910137
59 1 26 -0.010501 29.567219 27.360075 21.942753
60 1 26 -0.010501 28.794040 26.075339 22.912082
61 1 5 -0.032579 29.286067 25.537403 20.834301
62 1 26 0.137701 29.321108 26.079256 19.863199
63 1 6 -0.011695 28.338056 24.335568 20.707347
64 1 6 -0.095646 28.112271 23.459151 21.786536
65 1 25 0.111209 28.558516 23.655434 22.752551
66 1 6 -0.184492 27.380601 22.274601 21.607497
67 1 25 0.122822 27.288098 21.589630 22.440613
68 1 6 -0.022823 26.868207 21.930264 20.342299
69 1 5 0.164417 26.267610 20.546625 20.101812
70 1 6 -0.184492 26.991567 22.858377 19.294103
71 1 25 0.122822 26.591175 22.630416 18.314667
72 1 6 -0.095646 27.718142 24.046825 19.474340
73 1 25 0.111209 27.855693 24.706055 18.626689
74 1 26 -0.040461 25.223222 20.678608 19.747157
75 1 5 -0.072194 27.051100 19.660127 19.060223
76 1 26 0.004392 27.025005 20.168410 18.073373
77 1 26 0.004392 26.488867 18.708567 18.945453
78 1 5 0.060914 30.781039 25.099663 21.155291
79 1 26 -0.029666 31.394363 26.022331 21.247724
80 1 26 -0.029666 30.801397 24.601714 22.147999
81 1 5 -0.080441 31.507793 24.189142 20.095221
82 1 26 0.161633 31.534747 24.754918 19.137224
83 1 6 -0.033909 30.740773 22.922430 19.925700
84 1 6 -0.046469 30.578719 22.039797 21.009207
85 1 25 0.119472 31.000277 22.259518 21.981036
86 1 6 -0.154837 29.866067 20.863408 20.846316
87 1 25 0.088671 29.747579 20.196536 21.691346
88 1 6 -0.050237 29.308948 20.556681 19.600322
89 1 5 0.18978 28.532941 19.294283 19.434289
90 1 6 -0.154837 29.474918 21.437194 18.515555
91 1 25 0.088671 29.052572 21.217852 17.544031
92 1 6 -0.046469 30.187338 22.613802 18.678560
93 1 25 0.119472 30.305115 23.281320 17.833964
94 1 26 -0.043781 28.502576 18.731018 20.393786
95 1 5 -0.103886 29.256328 18.381038 18.380936
96 1 26 0.015134 29.243841 18.873795 17.385384
97 1 26 0.015134 28.647297 17.455208 18.289724
98 1 5 0.02372 32.992597 23.824315 20.465098
99 1 26 -0.032673 33.553116 24.777127 20.577914
100 1 26 -0.032673 33.021871 23.317783 21.452784
101 1 5 -0.070608 33.779323 22.935415 19.424436
102 1 26 0.047784 33.814332 23.498224 18.466675
103 1 6 -0.002343 33.188852 21.544453 19.187978
104 1 6 -0.14064 33.068950 20.618690 20.239295
105 1 25 0.145001 33.465575 20.852981 21.218951
106 1 6 -0.235918 32.343585 19.427706 20.064010
107 1 25 0.13736 32.200541 18.776967 20.917455
108 1 6 -0.03349 31.718626 19.136310 18.834178
109 1 5 0.334804 30.742623 17.953754 18.724012
110 1 6 -0.235918 31.954445 20.001222 17.747499
111 1 25 0.13736 31.505998 19.803701 16.782699
112 1 6 -0.14064 32.683269 21.189255 17.922361
113 1 25 0.145001 32.774670 21.870764 17.086103
114 1 26 -0.102684 30.706457 17.421606 19.700463
115 1 5 -0.093356 31.254975 16.948964 17.685604
116 1 26 -0.000797 32.275285 16.604764 17.958961
117 1 26 -0.000797 30.588221 16.060990 17.651391
118 1 26 -0.000556 24.858388 33.769212 23.898444
119 1 26 -0.040461 26.228897 19.980568 21.057563
120 1 26 0.047784 34.825107 22.811127 19.778147
121 1 26 -0.000797 31.287428 17.401634 16.672257
122 2 5 -0.051233 30.199055 38.195343 8.200299
123 2 26 -0.000556 31.249175 38.093467 8.547592
124 2 26 -0.000556 29.974555 39.276799 8.081866
125 2 5 0.030247 29.237489 37.530961 9.198729
126 2 26 0.028561 29.553204 36.466914 9.281849
127 2 6 0.077933 27.825342 37.604295 8.640024
128 2 6 -0.200132 27.189190 38.841913 8.421494
129 2 25 0.120991 27.687343 39.770012 8.668567
130 2 6 -0.123165 25.904105 38.892293 7.874014
131 2 25 0.137797 25.432174 39.852175 7.707136
132 2 6 -0.043312 25.236087 37.711964 7.533182
133 2 79 1.139467 23.601475 37.796041 6.796787
134 2 6 -0.123165 25.857219 36.476995 7.751223
135 2 25 0.137797 25.353572 35.555920 7.489099
136 2 6 -0.200132 27.141959 36.422668 8.300378
137 2 25 0.120991 27.606170 35.456244 8.451242
138 2 61 -0.686299 23.772038 38.348332 5.180775
139 2 61 -0.686299 22.883098 36.236275 6.808823
140 2 61 -0.686299 22.643172 38.888852 7.709804
141 2 5 -0.167947 29.406008 38.179478 10.599239
142 2 26 0.053829 30.494971 38.141618 10.825951
143 2 26 0.053829 29.119779 39.252899 10.566604
144 2 5 0.061335 28.685958 37.457393 11.773234
145 2 26 0.066322 29.036457 36.400706 11.769613
146 2 6 0.022005 27.176920 37.490474 11.606925
147 2 6 -0.142215 26.468066 38.706361 11.579709
148 2 25 0.122111 26.988713 39.648998 11.685691
149 2 6 -0.138255 25.079386 38.713137 11.413100
150 2 25 0.125927 24.553213 39.658122 11.394016
151 2 6 -0.052124 24.381513 37.507684 11.269388
152 2 79 1.076745 22.601736 37.494384 11.044497
153 2 6 -0.138255 25.078381 36.296714 11.298154
154 2 25 0.125927 24.547071 35.360187 11.187683
155 2 6 -0.142215 26.464584 36.285934 11.466135
156 2 25 0.122111 26.981871 35.335069 11.481394
157 2 61 -0.647047 22.038154 39.101033 10.820844
158 2 61 -0.647047 22.237692 36.548884 9.660790
159 2 61 -0.647047 21.878864 36.797755 12.434282
160 2 5 -0.099102 29.167549 38.079206 13.118480
161 2 26 0.032456 30.277087 37.995596 13.110397
162 2 26 0.032456 28.928744 39.163670 13.154022
163 2 5 0.015778 28.678840 37.375985 14.419024
164 2 26 0.022425 28.921855 36.294126 14.321777
165 2 6 -0.035969 27.185929 37.568824 14.623762
166 2 6 -0.131756 26.641840 38.858309 14.782504
167 2 25 0.101496 27.275041 39.734609 14.747198
168 2 6 -0.139767 25.275518 39.028410 15.007569
169 2 25 0.14135 24.877386 40.026150 15.139749
170 2 6 -0.051918 24.429926 37.918716 15.075893
171 2 79 1.157597 22.684857 38.167091 15.402927
172 2 6 -0.139767 24.956295 36.632526 14.904082
173 2 25 0.14135 24.313347 35.764163 14.954522
174 2 6 -0.131756 26.325573 36.457845 14.678381
175 2 25 0.101496 26.716109 35.454960 14.559907
176 2 61 -0.691163 22.046791 39.192971 14.183755
177 2 61 -0.691163 21.872455 36.654300 15.393938
178 2 61 -0.691163 22.529903 38.900347 16.946651
179 2 5 -0.000586 29.495403 37.912197 15.639122
180 2 26 -0.010501 30.571120 37.787685 15.384013
181 2 26 -0.010501 29.319839 39.001243 15.770700
182 2 5 -0.032579 29.283375 37.170388 16.993517
183 2 26 0.137701 29.518813 36.097038 16.819275
184 2 6 -0.011695 27.838142 37.294169 17.498720
185 2 6 -0.095646 27.274029 38.545139 17.815872
186 2 25 0.111209 27.833976 39.455621 17.647562
187 2 6 -0.184492 26.016745 38.628810 18.434573
188 2 25 0.122822 25.646077 39.602202 18.729423
189 2 6 -0.022823 25.298442 37.463692 18.763786
190 2 5 0.164417 24.042305 37.548286 19.628638
191 2 6 -0.184492 25.805602 36.222376 18.342774
192 2 25 0.122822 25.266697 35.310210 18.564381
193 2 6 -0.095646 27.060724 36.138512 17.717919
194 2 25 0.111209 27.454785 35.160777 17.471412
195 2 26 -0.040461 23.198813 37.102190 19.059898
196 2 5 -0.072194 24.153791 36.825634 21.025058
197 2 26 0.004392 24.318531 35.741651 20.849714
198 2 26 0.004392 23.167781 36.922568 21.528181
199 2 5 0.060914 30.344580 37.693179 18.056590
200 2 26 -0.029666 31.356804 37.585600 17.609535
201 2 26 -0.029666 30.180902 38.779757 18.219044
202 2 5 -0.080441 30.393894 36.955092 19.447189
203 2 26 0.161633 30.636148 35.887661 19.245967
204 2 6 -0.033909 29.064230 37.066745 20.111376
205 2 6 -0.046469 28.551139 38.327766 20.466138
206 2 25 0.119472 29.103002 39.236148 20.264319
207 2 6 -0.154837 27.315566 38.426176 21.084178
208 2 25 0.088671 26.933403 39.404637 21.347613
209 2 6 -0.050237 26.580772 37.266861 21.354417
210 2 5 0.18978 25.246056 37.380159 22.009476
211 2 6 -0.154837 27.095958 36.005436 21.003762
212 2 25 0.088671 26.543653 35.097197 21.204779
213 2 6 -0.046469 28.331459 35.907064 20.385393
214 2 25 0.119472 28.713396 34.928807 20.120948
215 2 26 -0.043781 25.002359 38.448160 22.206480
216 2 5 -0.103886 25.291635 36.649024 23.398799
217 2 26 0.015134 25.459011 35.561572 23.245431
218 2 26 0.015134 24.281482 36.758882 23.850375
219 2 5 0.02372 31.488860 37.505517 20.433411
220 2 26 -0.032673 32.473918 37.406262 19.928863
221 2 26 -0.032673 31.327800 38.590068 20.608804
222 2 5 -0.070608 31.601897 36.784596 21.833251
223 2 26 0.047784 31.849427 35.718699 21.638628
224 2 6 -0.002343 30.350805 36.875643 22.708364
225 2 6 -0.14064 29.848063 38.119593 23.128508
226 2 25 0.145001 30.387129 39.030085 22.899726
227 2 6 -0.235918 28.593037 38.208966 23.754800
228 2 25 0.13736 28.199268 39.189727 23.990056
229 2 6 -0.03349 27.810211 37.056713 23.972679
230 2 5 0.334804 26.352805 37.189822 24.443214
231 2 6 -0.235918 28.376151 35.802165 23.672050
232 2 25 0.13736 27.813788 34.893026 23.839892
233 2 6 -0.14064 29.632518 35.713379 23.050082
234 2 25 0.145001 30.000175 34.737777 22.758253
235 2 26 -0.102684 26.121959 38.265749 24.607642
236 2 5 -0.093356 26.172811 36.482504 25.791436
237 2 26 -0.000797 26.877600 36.903344 26.540034
238 2 26 -0.000797 25.138382 36.633657 26.167386
239 2 26 -0.000556 30.118267 37.703385 7.207054
240 2 26 -0.040461 23.789766 38.612834 19.824446
241 2 26 0.047784 32.450543 37.227892 22.396733
242 2 26 -0.000797 26.355673 35.391259 25.698807
243 3 5 -0.051233 36.552058 1.250151 28.268421
244 3 26 -0.000556 37.171992 1.240213 27.346832
245 3 26 -0.000556 36.324780 0.199061 28.546859
246 3 5 0.030247 35.264822 2.058622 28.039784
247 3 26 0.028561 35.583056 3.080429 27.734140
248 3 6 0.077933 34.494668 2.131862 29.348671
249 3 6 -0.200132 33.988923 0.970624 29.965027
250 3 25 0.120991 34.120307 -0.000127 29.505734
251 3 6 -0.123165 33.313873 1.052097 31.186249
252 3 25 0.137797 32.936802 0.149024 31.649085
253 3 6 -0.043312 33.136130 2.289768 31.812484
254 3 79 1.139467 32.299691 2.372115 33.398325
255 3 6 -0.123165 33.630127 3.450125 31.205827
256 3 25 0.137797 33.502864 4.414009 31.680674
257 3 6 -0.200132 34.304336 3.372671 29.983321
258 3 25 0.120991 34.685936 4.282567 29.537565
259 3 61 -0.686299 33.359807 1.745690 34.593881
260 3 61 -0.686299 31.909968 4.004986 33.760165
261 3 61 -0.686299 30.865334 1.433287 33.312282
262 3 5 -0.167947 34.463824 1.445700 26.859475
263 3 26 0.053829 35.180657 1.363314 26.012106
264 3 26 0.053829 34.136631 0.412941 27.107624
265 3 5 0.061335 33.264469 2.289348 26.341837
266 3 26 0.066322 33.662205 3.296631 26.083695
267 3 6 0.022005 32.182737 2.428082 27.398509
268 3 6 -0.142215 31.505416 1.303863 27.907393
269 3 25 0.122111 31.739171 0.310951 27.546348
270 3 6 -0.138255 30.520992 1.454529 28.889456
271 3 25 0.125927 30.012661 0.577952 29.268176
272 3 6 -0.052124 30.202006 2.727752 29.377254
273 3 79 1.076745 28.949827 2.942260 30.643900
274 3 6 -0.138255 30.868441 3.848559 28.874701
275 3 25 0.125927 30.628397 4.836500 29.246086
276 3 6 -0.142215 31.850547 3.702206 27.892896
277 3 25 0.122111 32.354951 4.585528 27.522378
278 3 61 -0.647047 28.461536 1.406073 31.236073
279 3 61 -0.647047 29.621800 3.873520 31.917615
280 3 61 -0.647047 27.613108 3.768757 29.958755
281 3 5 -0.099102 32.745179 1.664097 25.012300
282 3 26 0.032456 33.627236 1.616227 24.335680
283 3 26 0.032456 32.412017 0.617256 25.178076
284 3 5 0.015778 31.646984 2.466366 24.253946
285 3 26 0.022425 32.020949 3.507901 24.134419
286 3 6 -0.035969 30.332125 2.458037 25.014843
287 3 6 -0.131756 29.661213 1.248096 25.279278
288 3 25 0.101496 30.077173 0.302679 24.957945
289 3 6 -0.139767 28.435486 1.248170 25.945624
290 3 25 0.14135 27.928506 0.309626 26.128853
291 3 6 -0.051918 27.860066 2.451388 26.360682
292 3 79 1.157597 26.266733 2.422025 27.181860
293 3 6 -0.139767 28.524753 3.659672 26.117558
294 3 25 0.14135 28.090985 4.598905 26.433260
295 3 6 -0.131756 29.753708 3.663773 25.449703
296 3 25 0.101496 30.246941 4.608811 25.260079
297 3 61 -0.691163 26.397004 1.435064 28.580029
298 3 61 -0.691163 25.810980 4.018583 27.619930
299 3 61 -0.691163 25.115327 1.768233 26.090266
300 3 5 -0.000586 31.476120 1.882139 22.814355
301 3 26 -0.010501 32.487808 1.869933 22.351656
302 3 26 -0.010501 31.133028 0.826773 22.865798
303 3 5 -0.032579 30.565685 2.692089 21.842393
304 3 26 0.137701 30.979928 3.723295 21.788661
305 3 6 -0.011695 29.111923 2.757515 22.333869
306 3 6 -0.095646 28.332714 1.593865 22.483818
307 3 25 0.111209 28.768973 0.618349 22.313834
308 3 6 -0.184492 26.960963 1.681074 22.768859
309 3 25 0.122822 26.378575 0.769326 22.805786
310 3 6 -0.022823 26.331570 2.933724 22.897594
311 3 5 0.164417 24.809773 3.028757 22.987654
312 3 6 -0.184492 27.128784 4.090750 22.864930
313 3 25 0.122822 26.676510 5.067382 22.979882
314 3 6 -0.095646 28.502637 4.003766 22.586062
315 3 25 0.111209 29.074190 4.918814 22.496458
316 3 26 -0.040461 24.550085 3.550205 23.933487
317 3 5 -0.072194 24.124323 3.783144 21.785282
318 3 26 0.004392 24.485189 4.833182 21.775238
319 3 26 0.004392 23.033966 3.821105 21.996054
320 3 5 0.060914 30.683859 2.086734 20.376387
321 3 26 -0.029666 31.761577 2.058274 20.104836
322 3 26 -0.029666 30.331423 1.033531 20.396070
323 3 5 -0.080441 29.955140 2.863544 19.215998
324 3 26 0.161633 30.390565 3.887102 19.179652
325 3 6 -0.033909 28.495709 2.933140 19.510676
326 3 6 -0.046469 27.732189 1.754868 19.600137
327 3 25 0.119472 28.182902 0.781180 19.461463
328 3 6 -0.154837 26.376124 1.824872 19.873054
329 3 25 0.088671 25.803416 0.908313 19.942042
330 3 6 -0.050237 25.769307 3.071577 20.058697
331 3 5 0.18978 24.311331 3.139805 20.363746
332 3 6 -0.154837 26.531995 4.250151 19.964693
333 3 25 0.088671 26.081411 5.223721 20.104276
334 3 6 -0.046469 27.888201 4.180107 19.692081
335 3 25 0.119472 28.461327 5.096453 19.624038
336 3 26 -0.043781 23.877296 2.115701 20.404330
337 3 5 -0.103886 23.579674 3.910111 19.206955
338 3 26 0.015134 23.929534 4.964074 19.177797
339 3 26 0.015134 22.500542 3.936228 19.473771
340 3 5 0.02372 30.143626 2.224022 17.791205
341 3 26 -0.032673 31.234379 2.188426 17.582037
342 3 26 -0.032673 29.785542 1.172989 17.798981
343 3 5 -0.070608 29.457093 2.976633 16.585258
344 3 26 0.047784 29.892423 3.998286 16.540539
345 3 6 -0.002343 27.932211 3.065038 16.664412
346 3 6 -0.14064 27.138681 1.904846 16.695173
347 3 25 0.145001 27.595669 0.929597 16.585713
348 3 6 -0.235918 25.763388 1.986405 16.973089
349 3 25 0.13736 25.198610 1.067913 17.071529
350 3 6 -0.03349 25.150292 3.229865 17.229785
351 3 5 0.334804 23.707184 3.286217 17.756491
352 3 6 -0.235918 25.921216 4.397447 17.065516
353 3 25 0.13736 25.483201 5.371897 17.237407
354 3 6 -0.14064 27.294839 4.315304 16.783391
355 3 25 0.145001 27.873276 5.229709 16.745826
356 3 26 -0.102684 23.302248 2.251559 17.815273
357 3 5 -0.093356 22.821612 4.057947 16.771304
358 3 26 -0.000797 22.865546 3.584367 15.767300
359 3 26 -0.000797 21.765094 4.043213 17.114498
360 3 26 -0.000556 37.154089 1.712064 29.080382
361 3 26 -0.040461 24.369956 2.009075 23.034445
362 3 26 0.047784 29.724355 2.457167 15.640298
363 3 26 -0.000797 23.146796 5.116041 16.684549
364 4 5 -0.051233 18.870118 11.967232 26.017195
365 4 26 -0.000556 18.011219 11.561292 26.592738
366 4 26 -0.000556 19.107302 11.256331 25.197233
367 4 5 0.030247 20.080909 12.180239 26.939957
368 4 26 0.028561 19.747264 12.872647 27.744962
369 4 6 0.077933 21.198726 12.827579 26.138007
370 4 6 -0.200132 21.793202 12.165115 25.046272
371 4 25 0.120991 21.479418 11.167714 24.768243
372 4 6 -0.123165 22.795309 12.789062 24.297816
373 4 25 0.137797 23.237345 12.267897 23.458214
374 4 6 -0.043312 23.216878 14.082084 24.623341
375 4 79 1.139467 24.478452 14.882914 23.629154
376 4 6 -0.123165 22.636378 14.746887 25.709412
377 4 25 0.137797 22.950316 15.748881 25.970561
378 4 6 -0.200132 21.634936 14.125149 26.461499
379 4 25 0.120991 21.193889 14.662598 27.291471
380 4 61 -0.686299 23.774072 15.324283 22.127604
381 4 61 -0.686299 25.049062 16.284126 24.441613
382 4 61 -0.686299 25.770658 13.779167 23.388060
383 4 5 -0.167947 20.470865 10.835828 27.611442
384 4 26 0.053829 19.536598 10.437953 28.066978
385 4 26 0.053829 20.795861 10.099410 26.845093
386 4 5 0.061335 21.516326 10.927787 28.758916
387 4 26 0.066322 21.119561 11.654159 29.503504
388 4 6 0.022005 22.862959 11.410297 28.249298
389 4 6 -0.142215 23.592552 10.676089 27.295239
390 4 25 0.122111 23.207987 9.741289 26.909068
391 4 6 -0.138255 24.825345 11.146187 26.831056
392 4 25 0.125927 25.370098 10.567603 26.097092
393 4 6 -0.052124 25.344025 12.355053 27.311066
394 4 79 1.076745 26.918480 12.981062 26.721521
395 4 6 -0.138255 24.626467 13.087853 28.260286
396 4 25 0.125927 25.019739 14.023379 28.636720
397 4 6 -0.142215 23.396211 12.620763 28.727395
398 4 25 0.122111 22.857965 13.208521 29.460058
399 4 61 -0.647047 27.467769 12.015080 25.412275
400 4 61 -0.647047 26.697063 14.600144 26.201240
401 4 61 -0.647047 28.045933 12.931587 28.012157
402 4 5 -0.099102 21.593282 9.549612 29.482090
403 4 26 0.032456 20.552328 9.314843 29.797413
404 4 26 0.032456 21.899416 8.752930 28.770799
405 4 5 0.015778 22.470253 9.491677 30.767521
406 4 26 0.022425 22.138154 10.320194 31.432504
407 4 6 -0.035969 23.945951 9.635187 30.436450
408 4 6 -0.131756 24.593990 8.693135 29.613901
409 4 25 0.101496 24.049459 7.859144 29.191958
410 4 6 -0.139767 25.957710 8.808050 29.342814
411 4 25 0.14135 26.441228 8.067561 28.718832
412 4 6 -0.051918 26.696485 9.862763 29.884024
413 4 79 1.157597 28.454521 9.962910 29.547596
414 4 6 -0.139767 26.060446 10.814531 30.690534
415 4 25 0.14135 26.620018 11.636446 31.116348
416 4 6 -0.131756 24.693446 10.702722 30.964738
417 4 25 0.101496 24.221595 11.441512 31.600254
418 4 61 -0.691163 28.676605 10.033152 27.847101
419 4 61 -0.691163 29.108143 11.365364 30.292254
420 4 61 -0.691163 29.202630 8.560150 30.193626
421 4 5 -0.000586 22.184803 8.159115 31.532855
422 4 26 -0.010501 21.083699 8.105545 31.682688
423 4 26 -0.010501 22.466963 7.287040 30.905138
424 4 5 -0.032579 22.821148 8.024710 32.949407
425 4 26 0.137701 22.468936 8.892386 33.550203
426 4 6 -0.011695 24.356134 8.038273 32.895681
427 4 6 -0.095646 25.077320 7.041732 32.209729
428 4 25 0.111209 24.555312 6.276758 31.650113
429 4 6 -0.184492 26.475632 6.970495 32.310744
430 4 25 0.122822 26.990565 6.149077 31.829142
431 4 6 -0.022823 27.186249 7.885301 33.110740
432 4 5 0.164417 28.672183 7.673362 33.393738
433 4 6 -0.184492 26.481302 8.948897 33.699926
434 4 25 0.122822 27.002808 9.679166 34.305166
435 4 6 -0.095646 25.082774 9.024369 33.593951
436 4 25 0.111209 24.563192 9.815312 34.119744
437 4 26 -0.040461 29.223130 8.573749 33.047748
438 4 5 -0.072194 29.023846 7.411519 34.907810
439 4 26 0.004392 28.736333 8.307465 35.497320
440 4 26 0.004392 30.128959 7.321173 34.980668
441 4 5 0.060914 22.250611 6.724578 33.666161
442 4 26 -0.029666 21.140593 6.784186 33.647849
443 4 26 -0.029666 22.532665 5.833640 33.065736
444 4 5 -0.080441 22.657025 6.495071 35.170529
445 4 26 0.161633 22.289143 7.371592 35.749286
446 4 6 -0.033909 24.140908 6.396148 35.270146
447 4 6 -0.046469 24.828812 5.356470 34.618112
448 4 25 0.119472 24.302125 4.614358 34.033038
449 4 6 -0.154837 26.207647 5.268211 34.714660
450 4 25 0.088671 26.722299 4.463835 34.203832
451 4 6 -0.050237 26.912759 6.216496 35.463350
452 4 5 0.18978 28.398164 6.122861 35.553953
453 4 6 -0.154837 26.224356 7.253583 36.119187
454 4 25 0.088671 26.751176 7.996160 36.703470
455 4 6 -0.046469 24.845472 7.342019 36.022354
456 4 25 0.119472 24.330681 8.146871 36.532252
457 4 26 -0.043781 28.765908 5.248686 34.971366
458 4 5 -0.103886 28.808050 5.889704 37.052115
459 4 26 0.015134 28.525769 6.775151 37.660712
460 4 26 0.015134 29.917919 5.825194 37.072847
461 4 5 0.02372 22.029209 5.207832 35.821232
462 4 26 -0.032673 20.924317 5.301050 35.748544
463 4 26 -0.032673 22.313352 4.310408 35.232295
464 4 5 -0.070608 22.380774 4.942279 37.337129
465 4 26 0.047784 22.010459 5.812418 37.921090
466 4 6 -0.002343 23.866131 4.718124 37.624903
467 4 6 -0.14064 24.566826 3.651764 37.034493
468 4 25 0.145001 24.042478 2.926822 36.425029
469 4 6 -0.235918 25.966144 3.571174 37.138103
470 4 25 0.13736 26.481602 2.784184 36.602153
471 4 6 -0.03349 26.697565 4.556858 37.831951
472 4 5 0.334804 28.232008 4.586188 37.743756
473 4 6 -0.235918 25.980393 5.546300 38.532825
474 4 25 0.13736 26.504568 6.311159 39.090667
475 4 6 -0.14064 24.581423 5.623614 38.432374
476 4 25 0.145001 24.070235 6.445859 38.916868
477 4 26 -0.102684 28.576583 3.720820 37.135190
478 4 5 -0.093356 28.838580 4.419721 39.141882
479 4 26 -0.000797 28.479818 3.474927 39.603277
480 4 26 -0.000797 29.946518 4.372717 39.074844
481 4 26 -0.000556 18.555420 12.934939 25.570436
482 4 26 -0.040461 29.047499 6.804972 32.810285
483 4 26 0.047784 21.822955 4.045636 37.682228
484 4 26 -0.000797 28.563508 5.269402 39.801589
485 5 5 -0.051233 15.865591 27.884683 14.547017
486 5 26 -0.000556 16.554964 28.730281 14.755522
487 5 26 -0.000556 16.087608 27.068418 15.267013
488 5 5 0.030247 16.026234 27.407835 13.094542
489 5 26 0.028561 15.820334 28.289668 12.447427
490 5 6 0.077933 14.999474 26.320422 12.820710
491 5 6 -0.200132 15.025375 25.097983 13.520078
492 5 25 0.120991 15.793897 24.898522 14.255033
493 5 6 -0.123165 14.052647 24.123074 13.281190
494 5 25 0.137797 14.083935 23.191535 13.831823
495 5 6 -0.043312 13.038847 24.352857 12.345775
496 5 79 1.139467 11.776323 23.105578 12.078135
497 5 6 -0.123165 13.007223 25.561933 11.641767
498 5 25 0.137797 12.226702 25.754661 10.917617
499 5 6 -0.200132 13.979670 26.538754 11.876811
500 5 25 0.120991 13.929460 27.470131 11.327044
501 5 61 -0.686299 10.731536 23.103163 13.439761
502 5 61 -0.686299 10.886027 23.482113 10.658742
503 5 61 -0.686299 12.540905 21.578990 11.901721
504 5 5 -0.167947 17.496671 26.977174 12.844051
505 5 26 0.053829 18.127833 27.829350 13.181842
506 5 26 0.053829 17.760090 26.106711 13.482900
507 5 5 0.061335 17.881387 26.703844 11.362354
508 5 26 0.066322 17.621685 27.619194 10.784305
509 5 6 0.022005 17.120853 25.516599 10.798453
510 5 6 -0.142215 17.265007 24.226722 11.343460
511 5 25 0.122111 17.932623 24.053403 12.177199
512 5 6 -0.138255 16.544922 23.150138 10.815556
513 5 25 0.125927 16.669096 22.166871 11.249127
514 5 6 -0.052124 15.670921 23.347545 9.739475
515 5 79 1.076745 14.730282 21.982445 9.053865
516 5 6 -0.138255 15.524866 24.624827 9.191642
517 5 25 0.125927 14.851404 24.786607 8.359866
518 5 6 -0.142215 16.243502 25.701714 9.714872
519 5 25 0.122111 16.110184 26.682012 9.275321
520 5 61 -0.647047 14.923872 20.594554 10.046462
521 5 61 -0.647047 13.077479 22.436798 8.999573
522 5 61 -0.647047 15.300910 21.665142 7.468608
523 5 5 -0.099102 19.428234 26.542458 11.264943
524 5 26 0.032456 19.857583 27.467173 11.710692
525 5 26 0.032456 19.771918 25.694308 11.894925
526 5 5 0.015778 20.021761 26.424318 9.830183
527 5 26 0.022425 19.630135 27.281741 9.238248
528 5 6 -0.035969 19.634153 25.107823 9.178654
529 5 6 -0.131756 20.028820 23.880385 9.745784
530 5 25 0.101496 20.602390 23.853018 10.662496
531 5 6 -0.139767 19.702609 22.674779 9.124072
532 5 25 0.14135 20.025311 21.741892 9.567978
533 5 6 -0.051918 18.977233 22.672124 7.930365
534 5 79 1.157597 18.605040 21.108665 7.136024
535 5 6 -0.139767 18.565611 23.885221 7.364829
536 5 25 0.14135 18.003407 23.898267 6.440850
537 5 6 -0.131756 18.890793 25.096001 7.985027
538 5 25 0.101496 18.574182 26.024347 7.526482
539 5 61 -0.691163 17.726653 20.134998 8.243428
540 5 61 -0.691163 17.675789 21.385364 5.718792
541 5 61 -0.691163 20.089186 20.354702 6.719360
542 5 5 -0.000586 21.574268 26.593598 9.893470
543 5 26 -0.010501 21.770663 27.546607 10.432870
544 5 26 -0.010501 22.025312 25.780716 10.501695
545 5 5 -0.032579 22.313984 26.709955 8.526392
546 5 26 0.137701 21.859139 27.565674 7.979827
547 5 6 -0.011695 22.166997 25.436047 7.680931
548 5 6 -0.095646 22.668667 24.196796 8.124008
549 5 25 0.111209 23.115111 24.107354 9.105607
550 5 6 -0.184492 22.678882 23.081192 7.272024
551 5 25 0.122822 23.137544 22.164776 7.620785
552 5 6 -0.022823 22.200398 23.180364 5.951774
553 5 5 0.164417 22.413758 22.035039 4.963992
554 5 6 -0.184492 21.593039 24.381642 5.547579
555 5 25 0.122822 21.198630 24.482152 4.544626
556 5 6 -0.095646 21.576780 25.496413 6.401880
557 5 25 0.111209 21.166056 26.427961 6.033722
558 5 26 -0.040461 21.419738 21.710508 4.589092
559 5 5 -0.072194 23.331807 22.389270 3.732591
560 5 26 0.004392 22.842165 23.195918 3.147378
561 5 26 0.004392 23.366532 21.493243 3.076333
562 5 5 0.060914 23.835486 27.099055 8.777840
563 5 26 -0.029666 23.853825 28.015300 9.407274
564 5 26 -0.029666 24.315976 26.293247 9.372515
565 5 5 -0.080441 24.716618 27.414404 7.510903
566 5 26 0.161633 24.244738 28.275202 6.986553
567 5 6 -0.033909 24.744400 26.219361 6.620557
568 5 6 -0.046469 25.302351 25.009590 7.072702
569 5 25 0.119472 25.717040 24.919149 8.067838
570 5 6 -0.154837 25.326823 23.902238 6.241155
571 5 25 0.088671 25.756757 22.977547 6.605759
572 5 6 -0.050237 24.795135 23.992125 4.950344
573 5 5 0.18978 24.813914 22.793226 4.063951
574 5 6 -0.154837 24.241288 25.203288 4.496575
575 5 25 0.088671 23.825808 25.293392 3.501787
576 5 6 -0.046469 24.216530 26.310600 5.328300
577 5 25 0.119472 23.785748 27.235113 4.964299
578 5 26 -0.043781 25.281936 21.931463 4.590395
579 5 5 -0.103886 25.695084 23.101589 2.800896
580 5 26 0.015134 25.223287 23.909725 2.202220
581 5 26 0.015134 25.682206 22.185042 2.171471
582 5 5 0.02372 26.199776 27.822746 7.839612
583 5 26 -0.032673 26.162590 28.719602 8.494614
584 5 26 -0.032673 26.691229 27.018645 8.426852
585 5 5 -0.070608 27.121954 28.176733 6.608215
586 5 26 0.047784 26.658311 29.039949 6.083640
587 5 6 -0.002343 27.348347 27.030222 5.621501
588 5 6 -0.14064 27.957863 25.830934 6.030009
589 5 25 0.145001 28.345802 25.732439 7.035858
590 5 6 -0.235918 27.977453 24.712731 5.178798
591 5 25 0.13736 28.380212 23.780957 5.555460
592 5 6 -0.03349 27.385174 24.766943 3.900424
593 5 5 0.334804 27.208130 23.482049 3.075285
594 5 6 -0.235918 26.896484 26.007778 3.446477
595 5 25 0.13736 26.449151 26.094564 2.464989
596 5 6 -0.14064 26.881239 27.126152 4.296295
597 5 25 0.145001 26.422944 28.041167 3.942954
598 5 26 -0.102684 27.657832 22.629583 3.631177
599 5 5 -0.093356 27.969490 23.603510 1.750152
600 5 26 -0.000797 29.043158 23.812194 1.944883
601 5 26 -0.000797 27.900027 22.652120 1.180711
602 5 26 -0.000556 14.826826 28.239956 14.719740
603 5 26 -0.040461 22.875745 21.168552 5.484710
604 5 26 0.047784 28.112754 28.507655 6.986406
605 5 26 -0.000797 27.552693 24.418708 1.122006
606 6 5 -0.051233 12.989928 0.777604 7.533952
607 6 26 -0.000556 12.486386 -0.041138 8.090595
608 6 26 -0.000556 13.886384 1.090873 8.110323
609 6 5 0.030247 12.023616 1.953829 7.320384
610 6 26 0.028561 11.146234 1.546541 6.769841
611 6 6 0.077933 12.716756 3.007951 6.471814