LAMMPS Description

6317  atoms
5440  bonds
7650  angles
8721  dihedrals
204  impropers

90  atom types
843  bond types
4620  angle types
992  dihedral types
41  improper types

-0.05 43.05 xlo xhi
-0.05 43.05 ylo yhi
-0.05 43.05 zlo zhi

Masses

1 12.01  # c
2 12.01  # cs
3 12.01  # c1
4 12.01  # c2
5 12.01  # c3
6 12.01  # ca
7 12.01  # cp
8 12.01  # cq
9 12.01  # cc
10 12.01  # cd
11 12.01  # ce
12 12.01  # cf
13 12.01  # cg
14 12.01  # ch
15 12.01  # cx
16 12.01  # cy
17 12.01  # cu
18 12.01  # cv
19 12.01  # cz
20 1.008  # h1
21 1.008  # h2
22 1.008  # h3
23 1.008  # h4
24 1.008  # h5
25 1.008  # ha
26 1.008  # hc
27 1.008  # hn
28 1.008  # ho
29 1.008  # hp
30 1.008  # hs
31 1.008  # hw
32 1.008  # hx
33 19.00  # f
34 35.45  # cl
35 79.90  # br
36 126.9  # i
37 14.01  # n
38 14.01  # n1
39 14.01  # n2
40 14.01  # n3
41 14.01  # n4
42 14.01  # na
43 14.01  # nb
44 14.01  # nc
45 14.01  # nd
46 14.01  # ne
47 14.01  # nf
48 14.01  # nh
49 14.01  # no
51 14.01  # nt
52 14.01  # nx
53 14.01  # ny
54 14.01  # nz
55 14.01  # n+
56 14.01  # nu
57 14.01  # nv
58 14.01  # n7
59 14.01  # n8
60 14.01  # n9
61 16.00  # o
62 16.00  # oh
63 16.00  # os
64 16.00  # ow
65 30.97  # p2
66 30.97  # p3
67 30.97  # p4
68 30.97  # p5
69 30.97  # pb
70 30.97  # pc
71 30.97  # pd
72 30.97  # pe
73 30.97  # pf
74 30.97  # px
75 30.97  # py
76 32.06  # s
77 32.06  # s2
78 32.06  # s4
79 32.06  # s6
80 32.06  # sh
81 32.06  # ss
82 32.06  # sx
83 32.06  # sy
84 6.94  # li+
85 39.10  # k+
86 22.99  # na+
87 35.45  # cl-
88 19.00  # fl-
89 79.90  # br-
90 126.9  # i-
50 14.010  # ns

Atoms

1 1 5 -0.064834 19.689 18.484 17.142
2 1 1 0.222095 19.692 19.752 16.322
3 1 61 -0.421224 18.667 20.279 16.009
4 1 50 -0.199073 20.921 20.271 15.842
5 1 27 0.175403 21.746 19.708 16.098
6 1 5 0.184261 21.342 21.673 15.486
7 1 5 -0.100266 21.274 21.720 13.920
8 1 5 -0.100266 22.771 21.869 16.046
9 1 5 0.048604 20.508 22.883 15.994
10 1 79 1.067957 20.366 23.174 17.734
11 1 61 -0.67072 19.372 24.251 17.694
12 1 61 -0.67072 21.673 23.540 18.170
13 1 61 -0.67072 19.933 21.888 18.228
14 1 26 0.016092 22.073 21.194 13.457
15 1 26 0.016092 21.443 22.733 13.647
16 1 26 0.016092 20.336 21.544 13.345
17 1 26 0.016092 22.809 21.729 17.121
18 1 26 0.016092 23.127 22.856 15.895
19 1 26 0.016092 23.541 21.210 15.583
20 1 20 0.009122 19.489 22.840 15.603
21 1 20 0.009122 20.817 23.861 15.536
22 1 26 0.110917 20.633 18.419 17.637
23 1 5 -0.011873 19.273 17.259 16.329
24 1 1 0.615339 17.800 17.372 15.845
25 1 61 -0.561397 17.481 17.281 14.649
26 1 63 -0.237444 16.945 17.321 16.872
27 1 5 -0.084855 15.559 17.447 16.678
28 1 5 0.13222 15.248 18.916 16.241
29 1 63 -0.455502 13.846 19.337 16.457
30 1 5 0.114684 13.363 19.706 17.795
31 1 5 0.021605 13.656 21.167 18.108
32 1 63 -0.293251 14.874 20.999 18.844
33 1 5 -0.032933 15.553 22.225 19.290
34 1 5 0.124764 16.933 21.747 19.769
35 1 63 -0.408629 16.982 20.910 21.029
36 1 5 0.12378 16.780 21.440 22.336
37 1 5 0.151903 18.010 22.170 22.791
38 1 63 -0.326818 19.226 21.398 22.578
39 1 20 0.114474 15.049 16.665 16.096
40 1 20 0.114474 15.051 17.253 17.653
41 1 20 0.076629 15.979 19.588 16.718
42 1 20 0.076629 15.446 18.990 15.132
43 1 20 0.048212 12.346 19.422 17.925
44 1 20 0.048212 13.843 19.055 18.560
45 1 20 0.054681 13.805 21.793 17.211
46 1 20 0.054681 12.882 21.662 18.729
47 1 20 0.058887 15.641 22.938 18.442
48 1 20 0.058887 15.046 22.700 20.139
49 1 20 0.087894 17.388 21.159 19.046
50 1 20 0.087894 17.504 22.722 19.952
51 1 20 0.02648 15.890 22.186 22.360
52 1 20 0.02648 16.507 20.641 23.051
53 1 20 0.036537 17.924 22.420 23.883
54 1 20 0.036537 18.138 23.100 22.163
55 1 1 0.727713 19.326 20.349 23.395
56 1 61 -0.576378 18.578 20.134 24.305
57 1 5 -0.020814 20.443 19.404 22.973
58 1 26 0.067554 19.821 17.453 15.410
59 1 26 -0.02174 20.441 19.471 21.854
60 1 5 -0.024924 19.760 15.866 16.950
61 1 1 0.470545 18.744 15.374 18.041
62 1 61 -0.510544 18.011 14.362 18.011
63 1 63 -0.240725 18.880 16.164 19.150
64 1 5 -0.013005 17.909 16.070 20.202
65 1 5 0.119773 18.143 17.033 21.392
66 1 63 -0.420621 17.147 16.740 22.463
67 1 5 0.099176 17.312 15.573 23.267
68 1 5 0.161534 18.314 15.993 24.396
69 1 63 -0.458288 18.527 14.825 25.180
70 1 5 0.05472 19.539 14.941 26.114
71 1 5 0.076753 19.109 15.831 27.341
72 1 63 -0.389014 19.550 17.181 27.185
73 1 5 0.064058 20.904 17.480 27.738
74 1 5 -0.090567 21.328 18.840 27.091
75 1 63 -0.173198 21.530 18.849 25.686
76 1 20 0.101034 16.882 16.263 19.746
77 1 20 0.101034 17.966 15.062 20.646
78 1 20 0.049284 19.114 16.752 21.794
79 1 20 0.049284 18.076 18.114 21.136
80 1 20 0.046057 16.324 15.211 23.640
81 1 20 0.046057 17.775 14.816 22.646
82 1 20 0.088904 19.235 16.410 23.998
83 1 20 0.088904 17.884 16.747 25.045
84 1 20 0.069914 19.783 13.942 26.408
85 1 20 0.069914 20.478 15.426 25.671
86 1 20 0.06545 17.976 15.797 27.490
87 1 20 0.06545 19.587 15.462 28.270
88 1 20 0.050458 20.861 17.516 28.808
89 1 20 0.050458 21.614 16.663 27.418
90 1 20 0.129934 22.160 19.233 27.645
91 1 20 0.129934 20.493 19.527 27.247
92 1 1 0.480209 21.853 19.978 25.058
93 1 61 -0.503245 21.917 21.013 25.650
94 1 5 0.005732 21.873 19.855 23.526
95 1 26 0.086901 19.548 15.122 16.201
96 1 26 0.055053 22.054 20.870 23.056
97 1 5 -0.061618 21.310 15.875 17.433
98 1 1 0.006984 22.214 16.487 16.362
99 1 61 -0.316241 22.968 17.419 16.616
100 1 63 -0.165503 22.093 15.799 15.211
101 1 5 0.105106 22.625 16.417 13.951
102 1 5 0.117578 24.147 16.101 13.760
103 1 63 -0.320653 25.031 17.052 14.457
104 1 5 0.063637 25.118 18.393 13.958
105 1 5 0.029282 25.960 19.367 14.734
106 1 63 -0.194674 25.746 19.123 16.150
107 1 5 -0.009242 26.497 19.940 17.008
108 1 5 0.038187 26.307 19.548 18.536
109 1 63 -0.384229 25.215 20.151 19.065
110 1 5 -0.014226 24.013 19.453 18.794
111 1 5 0.009599 22.843 20.234 19.471
112 1 63 -0.33938 23.060 20.130 20.963
113 1 20 0.057043 22.079 15.974 13.149
114 1 20 0.057043 22.454 17.417 13.766
115 1 20 0.032527 24.474 15.113 14.206
116 1 20 0.032527 24.431 16.084 12.685
117 1 20 0.057362 25.454 18.355 12.926
118 1 20 0.057362 24.087 18.854 14.036
119 1 20 0.038983 26.987 19.113 14.487
120 1 20 0.038983 25.711 20.411 14.397
121 1 20 0.056343 27.511 19.844 16.718
122 1 20 0.056343 26.191 20.954 16.914
123 1 20 0.088918 26.125 18.461 18.637
124 1 20 0.088918 27.217 20.000 19.046
125 1 20 0.156904 23.686 19.437 17.723
126 1 20 0.156904 23.951 18.350 19.043
127 1 20 0.155332 21.831 19.857 19.222
128 1 20 0.155332 22.827 21.261 19.208
129 1 1 0.379316 22.991 18.857 21.567
130 1 61 -0.341833 22.601 17.899 21.056
131 1 5 0.022239 23.179 19.058 23.032
132 1 26 -0.044273 21.425 16.620 18.253
133 1 26 -0.043411 23.285 18.091 23.565
134 1 5 0.013273 21.818 14.483 17.909
135 1 1 0.315224 20.975 13.775 18.948
136 1 61 -0.440046 20.387 12.682 18.856
137 1 63 -0.079419 21.158 14.423 20.133
138 1 5 -0.022401 20.666 13.932 21.352
139 1 5 -0.009931 21.690 12.940 21.935
140 1 63 -0.36748 22.943 13.615 22.112
141 1 5 0.049975 23.027 14.736 23.049
142 1 5 0.087401 22.920 14.222 24.553
143 1 63 -0.398109 23.807 13.095 24.860
144 1 5 0.12569 25.159 13.550 25.070
145 1 5 0.05114 25.454 14.039 26.556
146 1 63 -0.336734 25.221 15.451 26.664
147 1 5 0.053992 26.313 16.243 26.197
148 1 5 0.016258 25.874 17.711 26.323
149 1 63 -0.222559 25.271 18.152 25.037
150 1 20 0.091829 20.503 14.731 22.030
151 1 20 0.091829 19.685 13.502 21.159
152 1 20 0.095311 21.369 12.617 22.961
153 1 20 0.095311 21.714 12.065 21.330
154 1 20 0.046702 24.037 15.124 22.881
155 1 20 0.046702 22.262 15.518 22.982
156 1 20 0.053859 23.211 15.063 25.215
157 1 20 0.053859 21.884 13.898 24.817
158 1 20 0.046591 25.797 12.692 24.848
159 1 20 0.046591 25.461 14.330 24.340
160 1 20 0.051636 24.832 13.581 27.294
161 1 20 0.051636 26.471 13.751 26.907
162 1 20 0.053041 27.198 15.994 26.718
163 1 20 0.053041 26.486 16.091 25.113
164 1 20 0.084748 26.811 18.284 26.513
165 1 20 0.084748 25.301 17.801 27.216
166 1 1 0.268048 24.976 19.491 24.866
167 1 61 -0.418054 25.154 20.486 25.598
168 1 5 0.015692 24.475 19.809 23.422
169 1 26 0.086891 21.847 13.894 16.984
170 1 26 0.079668 24.409 20.871 23.330
171 1 5 0.189124 23.304 14.664 18.449
172 1 1 0.691036 24.078 13.420 18.931
173 1 61 -0.55956 23.656 12.281 18.977
174 1 63 -0.351838 25.410 13.796 19.060
175 1 5 0.061411 26.216 13.042 19.958
176 1 5 0.002798 27.682 13.524 19.941
177 1 63 -0.344871 27.816 14.957 20.053
178 1 5 -0.052278 27.457 15.536 21.322
179 1 5 0.040495 28.502 15.190 22.370
180 1 63 -0.386643 29.918 15.165 21.853
181 1 5 0.067818 30.492 16.501 21.546
182 1 5 0.040988 31.084 17.096 22.891
183 1 63 -0.342146 30.101 17.943 23.618
184 1 5 -0.061806 29.823 19.169 22.959
185 1 5 -0.025605 29.099 20.063 23.934
186 1 63 -0.300453 27.725 19.761 23.706
187 1 20 0.073511 25.776 13.076 20.999
188 1 20 0.073511 26.213 11.959 19.685
189 1 20 0.086569 28.220 13.066 20.727
190 1 20 0.086569 28.073 13.104 19.005
191 1 20 0.099542 27.246 16.579 21.296
192 1 20 0.099542 26.519 15.056 21.619
193 1 20 0.080529 28.361 15.857 23.206
194 1 20 0.080529 28.281 14.174 22.765
195 1 20 0.068977 31.334 16.425 20.809
196 1 20 0.068977 29.791 17.180 21.039
197 1 20 0.063577 31.505 16.372 23.549
198 1 20 0.063577 31.942 17.745 22.596
199 1 20 0.10265 30.772 19.634 22.754
200 1 20 0.10265 29.378 19.134 22.026
201 1 20 0.108525 29.223 21.121 23.718
202 1 20 0.108525 29.461 19.892 25.003
203 1 1 0.758167 26.930 20.288 22.733
204 1 61 -0.584437 27.384 21.100 21.951
205 1 5 -0.006456 25.661 19.432 22.529
206 1 26 -0.085676 23.880 15.104 17.737
207 1 26 0.002565 25.372 19.510 21.478
208 1 26 0.110917 19.015 18.626 17.966
209 1 26 -0.085676 23.260 15.372 19.288
210 1 26 -0.02174 20.184 18.380 23.223
211 1 26 0.002565 25.877 18.406 22.687
212 2 5 -0.064834 29.888 8.346 18.433
213 2 1 0.222095 28.923 7.294 17.938
214 2 61 -0.421224 28.339 7.438 16.907
215 2 50 -0.199073 28.639 6.168 18.752
216 2 27 0.175403 29.132 6.166 19.659
217 2 5 0.184261 28.192 4.772 18.403
218 2 5 -0.100266 26.654 4.763 18.705
219 2 5 -0.100266 29.001 3.805 19.300
220 2 5 0.048604 28.353 4.249 16.948
221 2 79 1.067957 29.972 4.100 16.249
222 2 61 -0.67072 29.587 3.774 14.873
223 2 61 -0.67072 30.613 3.060 16.986
224 2 61 -0.67072 30.535 5.408 16.491
225 2 26 0.016092 26.438 4.742 19.747
226 2 26 0.016092 26.288 3.830 18.350
227 2 26 0.016092 25.927 5.436 18.194
228 2 26 0.016092 30.070 3.903 19.146
229 2 26 0.016092 28.795 2.788 19.079
230 2 26 0.016092 28.798 3.910 20.391
231 2 20 0.009122 27.771 4.860 16.254
232 2 20 0.009122 27.841 3.265 16.769
233 2 26 0.110917 30.569 7.867 19.104
234 2 5 -0.011873 29.178 9.586 18.973
235 2 1 0.615339 28.393 10.325 17.853
236 2 61 -0.561397 27.179 10.573 17.941
237 2 63 -0.237444 29.220 10.856 16.948
238 2 5 -0.084855 28.732 11.535 15.819
239 2 5 0.13222 28.048 10.498 14.869
240 2 63 -0.455502 27.915 10.946 13.466
241 2 5 0.114684 29.065 10.923 12.550
242 2 5 0.021605 29.232 9.554 11.904
243 2 63 -0.293251 30.219 9.007 12.789
244 2 5 -0.032933 30.626 7.615 12.549
245 2 5 0.124764 31.436 7.230 13.796
246 2 63 -0.408629 32.778 7.899 13.988
247 2 5 0.12378 33.936 7.584 13.217
248 2 5 0.151903 34.529 6.289 13.686
249 2 63 -0.326818 34.674 6.235 15.133
250 2 20 0.114474 28.168 12.466 15.984
251 2 20 0.114474 29.600 11.988 15.283
252 2 20 0.076629 28.570 9.532 14.967
253 2 20 0.076629 27.003 10.319 15.258
254 2 20 0.048212 29.021 11.734 11.862
255 2 20 0.048212 29.992 11.193 13.105
256 2 20 0.054681 28.310 8.949 11.897
257 2 20 0.054681 29.611 9.589 10.862
258 2 20 0.058887 29.725 6.972 12.433
259 2 20 0.058887 31.281 7.516 11.675
260 2 20 0.087894 30.906 7.453 14.659
261 2 20 0.087894 31.599 6.104 13.671
262 2 20 0.02648 33.676 7.473 12.090
263 2 20 0.02648 34.679 8.403 13.263
264 2 20 0.036537 35.537 6.138 13.214
265 2 20 0.036537 33.821 5.445 13.431
266 2 1 0.727713 35.628 7.048 15.592
267 2 61 -0.576378 36.386 7.653 14.890
268 2 5 -0.020814 35.573 7.191 17.106
269 2 26 0.067554 28.372 9.111 19.529
270 2 26 -0.02174 34.478 7.132 17.342
271 2 5 -0.024924 30.066 10.462 19.977
272 2 1 0.470545 30.983 11.449 19.171
273 2 61 -0.510544 30.939 12.697 19.149
274 2 63 -0.240725 31.981 10.726 18.574
275 2 5 -0.013005 32.813 11.360 17.593
276 2 5 0.119773 33.886 10.440 16.960
277 2 63 -0.420621 34.760 11.252 16.063
278 2 5 0.099176 35.731 12.124 16.642
279 2 5 0.161534 36.974 11.217 16.936
280 2 63 -0.458288 37.934 12.064 17.557
281 2 5 0.05472 39.031 11.400 18.073
282 2 5 0.076753 40.014 10.918 16.940
283 2 63 -0.389014 39.772 9.553 16.588
284 2 5 0.064058 40.546 8.543 17.371
285 2 5 -0.090567 39.822 7.178 17.118
286 2 63 -0.173198 38.499 7.049 17.618
287 2 20 0.101034 32.136 11.780 16.778
288 2 20 0.101034 33.391 12.161 18.085
289 2 20 0.049284 34.512 10.125 17.793
290 2 20 0.049284 33.480 9.586 16.374
291 2 20 0.046057 35.939 12.985 15.961
292 2 20 0.046057 35.324 12.483 17.580
293 2 20 0.088904 36.720 10.350 17.539
294 2 20 0.088904 37.415 10.843 16.019
295 2 20 0.069914 39.499 12.088 18.747
296 2 20 0.069914 38.728 10.467 18.665
297 2 20 0.06545 39.931 11.588 16.018
298 2 20 0.06545 41.062 10.956 17.298
299 2 20 0.050458 41.570 8.545 17.055
300 2 20 0.050458 40.489 8.814 18.465
301 2 20 0.129934 40.477 6.386 17.432
302 2 20 0.129934 39.710 7.087 16.036
303 2 1 0.480209 37.806 5.933 17.408
304 2 61 -0.503245 38.254 5.046 16.745
305 2 5 0.005732 36.340 6.015 17.866
306 2 26 0.086901 29.396 11.191 20.400
307 2 26 0.055053 35.785 5.072 17.566
308 2 5 -0.061618 30.849 9.580 21.093
309 2 1 0.006984 29.914 8.558 21.739
310 2 61 -0.316241 30.188 7.364 21.768
311 2 63 -0.165503 28.865 9.188 22.303
312 2 5 0.105106 27.669 8.369 22.694
313 2 5 0.117578 27.837 7.767 24.130
314 2 63 -0.320653 28.566 6.486 24.143
315 2 5 0.063637 27.920 5.330 23.596
316 2 5 0.029282 28.715 4.054 23.545
317 2 63 -0.194674 30.077 4.385 23.161
318 2 5 -0.009242 30.952 3.290 23.103
319 2 5 0.038187 32.449 3.729 22.794
320 2 63 -0.384229 32.658 3.854 21.460
321 2 5 -0.014226 32.243 5.107 20.951
322 2 5 0.009599 32.555 5.129 19.422
323 2 63 -0.33938 34.062 5.102 19.287
324 2 20 0.057043 26.838 9.040 22.698
325 2 20 0.057043 27.321 7.640 22.053
326 2 20 0.032527 28.469 8.398 24.826
327 2 20 0.032527 26.854 7.614 24.629
328 2 20 0.057362 26.994 5.165 24.138
329 2 20 0.057362 27.723 5.534 22.501
330 2 20 0.038983 28.718 3.681 24.564
331 2 20 0.038983 28.197 3.332 22.853
332 2 20 0.056343 30.891 2.794 24.036
333 2 20 0.056343 30.664 2.627 22.323
334 2 20 0.088918 32.654 4.729 23.220
335 2 20 0.088918 33.067 2.844 23.147
336 2 20 0.156904 31.139 5.301 20.959
337 2 20 0.156904 32.619 6.053 21.447
338 2 20 0.155332 32.159 6.012 18.881
339 2 20 0.155332 32.160 4.291 18.908
340 2 1 0.379316 34.802 6.194 19.786
341 2 61 -0.341833 34.355 7.201 20.126
342 2 5 0.022239 36.235 5.930 19.467
343 2 26 -0.044273 31.569 8.905 20.574
344 2 26 -0.043411 36.904 6.668 19.955
345 2 5 0.013273 31.600 10.442 22.148
346 2 1 0.315224 32.531 11.509 21.611
347 2 61 -0.440046 32.469 12.742 21.765
348 2 63 -0.079419 33.630 10.877 21.111
349 2 5 -0.022401 34.778 11.568 20.691
350 2 5 -0.009931 35.686 11.810 21.913
351 2 63 -0.36748 36.022 10.544 22.498
352 2 5 0.049975 36.797 9.579 21.720
353 2 5 0.087401 38.304 10.070 21.549
354 2 63 -0.398109 38.933 10.499 22.803
355 2 5 0.12569 39.352 9.359 23.581
356 2 5 0.05114 40.789 8.797 23.185
357 2 63 -0.336734 40.657 7.766 22.196
358 2 5 0.053992 40.321 6.493 22.747
359 2 5 0.016258 40.157 5.532 21.559
360 2 63 -0.222559 38.727 5.502 21.147
361 2 20 0.091829 35.295 11.005 19.955
362 2 20 0.091829 34.449 12.476 20.191
363 2 20 0.095311 36.659 12.263 21.583
364 2 20 0.095311 35.221 12.514 22.560
365 2 20 0.046702 36.790 8.685 22.354
366 2 20 0.046702 36.472 9.366 20.694
367 2 20 0.053859 38.892 9.216 21.158
368 2 20 0.053859 38.391 10.925 20.836
369 2 20 0.046591 39.383 9.705 24.617
370 2 20 0.046591 38.602 8.542 23.572
371 2 20 0.051636 41.438 9.532 22.761
372 2 20 0.051636 41.374 8.462 24.070
373 2 20 0.053041 41.040 6.200 23.464
374 2 20 0.053041 39.324 6.513 23.233
375 2 20 0.084748 40.456 4.530 21.945
376 2 20 0.084748 40.894 5.787 20.832
377 2 1 0.268048 38.323 4.566 20.217
378 2 61 -0.418054 38.935 3.648 19.632
379 2 5 0.015692 36.776 4.579 19.994
380 2 26 0.086891 30.788 10.906 22.721
381 2 26 0.079668 36.532 3.740 19.380
382 2 5 0.189124 32.403 9.455 23.102
383 2 1 0.691036 33.197 10.044 24.288
384 2 61 -0.55956 33.307 11.222 24.566
385 2 63 -0.351838 33.543 8.982 25.114
386 2 5 0.061411 34.680 9.152 25.952
387 2 5 0.002798 34.897 7.924 26.863
388 2 63 -0.344871 34.841 6.668 26.154
389 2 5 -0.052278 35.921 6.400 25.239
390 2 5 0.040495 37.197 6.100 26.009
391 2 63 -0.386643 36.988 5.316 27.279
392 2 5 0.067818 36.630 3.889 27.077
393 2 5 0.040988 37.975 3.069 26.894
394 2 63 -0.342146 38.366 2.933 25.466
395 2 5 -0.061806 37.506 2.077 24.731
396 2 5 -0.025605 38.184 1.754 23.423
397 2 63 -0.300453 37.723 2.781 22.546
398 2 20 0.073511 35.593 9.379 25.329
399 2 20 0.073511 34.558 10.045 26.613
400 2 20 0.086569 35.830 8.002 27.354
401 2 20 0.086569 34.126 8.044 27.634
402 2 20 0.099542 35.714 5.660 24.503
403 2 20 0.099542 36.082 7.329 24.682
404 2 20 0.080529 37.890 5.635 25.325
405 2 20 0.080529 37.671 7.064 26.293
406 2 20 0.068977 36.098 3.471 27.972
407 2 20 0.068977 35.903 3.723 26.268
408 2 20 0.063577 38.796 3.433 27.469
409 2 20 0.063577 37.777 2.048 27.294
410 2 20 0.10265 37.439 1.153 25.283
411 2 20 0.10265 36.515 2.352 24.622
412 2 20 0.108525 37.859 0.811 22.992
413 2 20 0.108525 39.318 1.696 23.545
414 2 1 0.758167 36.547 2.791 21.859
415 2 61 -0.584437 35.772 1.860 21.967
416 2 5 -0.006456 36.203 4.213 21.367
417 2 26 -0.085676 31.772 8.762 23.494
418 2 26 0.002565 35.115 4.307 21.349
419 2 26 0.110917 30.530 8.614 17.616
420 2 26 -0.085676 33.114 8.901 22.474
421 2 26 -0.02174 35.899 8.184 17.402
422 2 26 0.002565 36.539 4.937 22.065
423 3 5 -0.064834 9.021 6.419 24.420
424 3 1 0.222095 7.714 5.664 24.423
425 3 61 -0.421224 7.296 5.164 25.424
426 3 50 -0.199073 7.019 5.468 23.202
427 3 27 0.175403 7.491 5.868 22.376
428 3 5 0.184261 5.556 5.257 22.909
429 3 5 -0.100266 5.419 3.714 22.666
430 3 5 -0.100266 5.221 6.108 21.660
431 3 5 0.048604 4.491 5.626 23.980
432 3 79 1.067957 4.330 7.308 24.506
433 3 61 -0.67072 3.383 7.103 25.606
434 3 61 -0.67072 3.834 8.019 23.373
435 3 61 -0.67072 5.688 7.655 24.854
436 3 26 0.016092 5.813 3.408 21.728
437 3 26 0.016092 4.377 3.520 22.582
438 3 26 0.016092 5.672 2.951 23.438
439 3 26 0.016092 5.422 7.162 21.818
440 3 26 0.016092 4.190 6.070 21.414
441 3 26 0.016092 5.751 5.792 20.732
442 3 20 0.009122 4.635 5.030 24.885
443 3 20 0.009122 3.455 5.278 23.718
444 3 26 0.110917 9.001 7.096 23.594
445 3 5 -0.011873 10.234 5.493 24.499
446 3 1 0.615339 10.273 4.719 25.847
447 3 61 -0.561397 10.327 3.481 25.903
448 3 63 -0.237444 10.492 5.545 26.876
449 3 5 -0.084855 10.525 5.072 28.198
450 3 5 0.13222 9.081 4.635 28.608
451 3 63 -0.455502 8.849 4.570 30.068
452 3 5 0.114684 8.628 5.793 30.853
453 3 5 0.021605 7.164 6.211 30.826
454 3 63 -0.293251 7.227 7.179 29.770
455 3 5 -0.032933 5.959 7.799 29.364
456 3 5 0.124764 6.291 8.536 28.057
457 3 63 -0.408629 7.193 9.747 28.151
458 3 5 0.12378 6.776 11.003 28.678
459 3 5 0.151903 5.930 11.729 27.673
460 3 63 -0.326818 6.532 11.743 26.348
461 3 20 0.114474 11.326 4.369 28.473
462 3 20 0.114474 10.841 5.914 28.861
463 3 20 0.076629 8.355 5.276 28.082
464 3 20 0.076629 8.914 3.594 28.203
465 3 20 0.048212 9.042 5.698 31.830
466 3 20 0.048212 9.262 6.615 30.455
467 3 20 0.054681 6.469 5.389 30.585
468 3 20 0.054681 6.808 6.677 31.768
469 3 20 0.058887 5.188 7.013 29.202
470 3 20 0.058887 5.604 8.541 30.088
471 3 20 0.087894 6.772 7.902 27.391
472 3 20 0.087894 5.267 8.868 27.668
473 3 20 0.02648 6.148 10.869 29.646
474 3 20 0.02648 7.646 11.615 28.981
475 3 20 0.036537 5.762 12.787 28.009
476 3 20 0.036537 4.954 11.174 27.546
477 3 1 0.727713 7.610 12.526 26.274
478 3 61 -0.576378 7.971 13.252 27.155
479 3 5 -0.020814 8.383 12.310 24.980
480 3 26 0.067554 9.916 4.715 23.808
481 3 26 -0.02174 8.247 11.217 24.766
482 3 5 -0.024924 11.593 6.152 23.965
483 3 1 0.470545 12.274 6.990 25.105
484 3 61 -0.510544 13.363 6.772 25.676
485 3 63 -0.240725 11.544 8.131 25.300
486 3 5 -0.013005 11.823 8.955 26.441
487 3 5 0.119773 10.915 10.200 26.580
488 3 63 -0.420621 11.393 11.031 27.724
489 3 5 0.099176 12.580 11.809 27.569
490 3 5 0.161534 12.112 13.136 26.878
491 3 63 -0.458288 13.292 13.904 26.675
492 3 5 0.05472 13.111 15.031 25.895
493 3 5 0.076753 12.360 16.174 26.677
494 3 63 -0.389014 10.958 16.161 26.396
495 3 5 0.064058 10.532 16.994 25.233
496 3 5 -0.090567 9.091 16.498 24.873
497 3 63 -0.173198 8.969 15.166 24.396
498 3 20 0.101034 11.729 8.303 27.372
499 3 20 0.101034 12.841 9.364 26.341
500 3 20 0.049284 11.099 10.784 25.681
501 3 20 0.049284 9.836 9.977 26.738
502 3 20 0.046057 13.083 11.956 28.555
503 3 20 0.046057 13.234 11.270 26.894
504 3 20 0.088904 11.561 12.952 25.960
505 3 20 0.088904 11.459 13.708 27.527
506 3 20 0.069914 14.090 15.332 25.584
507 3 20 0.069914 12.488 14.810 24.958
508 3 20 0.06545 12.543 16.084 27.802
509 3 20 0.06545 12.726 17.167 26.350
510 3 20 0.050458 10.568 18.032 25.493
511 3 20 0.050458 11.233 16.797 24.372
512 3 20 0.129934 8.635 17.226 24.227
513 3 20 0.129934 8.523 16.502 25.805
514 3 1 0.480209 7.772 14.660 24.106
515 3 61 -0.503245 6.776 15.290 24.300
516 3 5 0.005732 7.797 13.162 23.764
517 3 26 0.086901 12.309 5.348 23.923
518 3 26 0.055053 6.738 12.777 23.629
519 3 5 -0.061618 11.424 6.944 22.558
520 3 1 0.006984 10.640 6.106 21.548
521 3 61 -0.316241 9.640 6.544 20.990
522 3 63 -0.165503 11.265 4.931 21.342
523 3 5 0.105106 10.507 3.832 20.656
524 3 5 0.117578 10.621 3.949 19.098
525 3 63 -0.320653 9.615 4.847 18.507
526 3 5 0.063637 8.245 4.426 18.500
527 3 5 0.029282 7.226 5.394 17.968
528 3 63 -0.194674 7.584 6.727 18.428
529 3 5 -0.009242 6.736 7.750 17.979
530 3 5 0.038187 7.242 9.191 18.417
531 3 63 -0.384229 6.813 9.503 19.664
532 3 5 -0.014226 7.634 8.964 20.684
533 3 5 0.009599 7.047 9.413 22.059
534 3 63 -0.33938 7.217 10.913 22.135
535 3 20 0.057043 10.964 2.918 20.966
536 3 20 0.057043 9.526 3.652 20.918
537 3 20 0.032527 11.588 4.417 18.739
538 3 20 0.032527 10.537 2.956 18.605
539 3 20 0.057362 8.177 3.485 17.962
540 3 20 0.057362 7.920 4.305 19.578
541 3 20 0.038983 7.335 5.356 16.887
542 3 20 0.038983 6.201 5.051 18.281
543 3 20 0.056343 6.688 7.672 16.924
544 3 20 0.056343 5.762 7.632 18.393
545 3 20 0.088918 8.347 9.211 18.471
546 3 20 0.088918 6.716 9.893 17.696
547 3 20 0.156904 7.623 7.848 20.784
548 3 20 0.156904 8.750 9.155 20.647
549 3 20 0.155332 7.528 8.946 22.941
550 3 20 0.155332 6.015 9.189 22.158
551 3 1 0.379316 8.524 11.442 22.153
552 3 61 -0.341833 9.488 10.827 22.301
553 3 5 0.022239 8.394 12.920 22.291
554 3 26 -0.044273 10.724 7.797 22.711
555 3 26 -0.043411 9.371 13.429 22.166
556 3 5 0.013273 12.771 7.464 21.976
557 3 1 0.315224 13.641 8.280 22.909
558 3 61 -0.440046 14.789 8.029 23.315
559 3 63 -0.079419 13.050 9.499 23.055
560 3 5 -0.022401 13.674 10.571 23.711
561 3 5 -0.009931 14.568 11.318 22.703
562 3 63 -0.36748 13.756 11.775 21.611
563 3 5 0.049975 12.695 12.747 21.868
564 3 5 0.087401 13.311 14.179 22.205
565 3 63 -0.398109 14.337 14.621 21.255
566 3 5 0.12569 13.734 15.123 20.045
567 3 5 0.05114 13.307 16.655 20.122
568 3 63 -0.336734 11.943 16.763 20.557
569 3 5 0.053992 10.997 16.562 19.510
570 3 5 0.016258 9.604 16.647 20.155
571 3 63 -0.222559 9.159 15.280 20.541
572 3 20 0.091829 12.944 11.230 24.112
573 3 20 0.091829 14.208 10.164 24.568
574 3 20 0.095311 14.990 12.243 23.177
575 3 20 0.095311 15.394 10.700 22.442
576 3 20 0.046702 12.176 12.808 20.905
577 3 20 0.046702 12.009 12.554 22.700
578 3 20 0.053859 12.484 14.916 22.166
579 3 20 0.053859 13.775 14.210 23.220
580 3 20 0.046591 14.492 15.007 19.268
581 3 20 0.046591 12.879 14.500 19.709
582 3 20 0.051636 13.883 17.230 20.813
583 3 20 0.051636 13.490 17.198 19.168
584 3 20 0.053041 11.166 17.245 18.720
585 3 20 0.053041 11.057 15.531 19.104
586 3 20 0.084748 8.933 17.047 19.360
587 3 20 0.084748 9.641 17.405 20.902
588 3 1 0.268048 7.861 15.101 20.972
589 3 61 -0.418054 6.898 15.889 21.079
590 3 5 0.015692 7.516 13.596 21.211
591 3 26 0.086891 13.292 6.545 21.685
592 3 26 0.079668 6.466 13.532 21.397
593 3 5 0.189124 12.442 8.306 20.667
594 3 1 0.691036 13.610 8.893 19.846
595 3 61 -0.55956 14.793 8.810 20.114
596 3 63 -0.351838 13.083 9.308 18.629
597 3 5 0.061411 13.787 10.326 17.926
598 3 5 0.002798 13.128 10.629 16.564
599 3 63 -0.344871 11.700 10.819 16.648
600 3 5 -0.052278 11.249 12.005 17.327
601 3 5 0.040495 11.530 13.235 16.476
602 3 63 -0.386643 11.349 13.021 14.995
603 3 5 0.067818 9.937 12.890 14.554
604 3 5 0.040988 9.358 14.348 14.329
605 3 63 -0.342146 8.686 14.885 15.542
606 3 5 -0.061806 7.465 14.228 15.842
607 3 5 -0.025605 6.729 15.064 16.859
608 3 63 -0.300453 7.183 14.546 18.107
609 3 20 0.073511 13.873 11.253 18.567
610 3 20 0.073511 14.843 10.018 17.730
611 3 20 0.086569 13.565 11.492 16.138
612 3 20 0.086569 13.438 9.781 15.942
613 3 20 0.099542 10.241 11.975 17.666
614 3 20 0.099542 11.858 12.085 18.233
615 3 20 0.080529 10.940 14.047 16.869
616 3 20 0.080529 12.588 13.539 16.636
617 3 20 0.068977 9.862 12.341 13.580
618 3 20 0.068977 9.318 12.272 15.224
619 3 20 0.063577 10.065 15.051 13.957
620 3 20 0.063577 8.591 14.260 13.523
621 3 20 0.10265 6.873 14.241 14.942
622 3 20 0.10265 7.495 13.223 16.082
623 3 20 0.108525 5.652 14.917 16.836
624 3 20 0.108525 6.921 16.178 16.699
625 3 1 0.758167 6.697 13.449 18.753
626 3 61 -0.584437 5.788 12.808 18.263
627 3 5 -0.006456 7.688 12.955 19.830
628 3 26 -0.085676 11.892 7.745 20.023
629 3 26 0.002565 7.580 11.871 19.911
630 3 26 0.110917 9.015 7.090 25.259
631 3 26 -0.085676 11.800 9.142 20.971
632 3 26 -0.02174 9.444 12.462 25.146
633 3 26 0.002565 8.688 13.119 19.517
634 4 5 -0.064834 37.779 13.314 33.901
635 4 1 0.222095 39.244 13.321 33.537
636 4 61 -0.421224 40.048 13.852 34.244
637 4 50 -0.199073 39.660 12.772 32.298
638 4 27 0.175403 38.889 12.404 31.718
639 4 5 0.184261 40.968 12.165 31.862
640 4 5 -0.100266 41.675 13.296 31.039
641 4 5 -0.100266 40.624 10.913 31.020
642 4 5 0.048604 41.997 11.696 32.931
643 4 79 1.067957 41.560 10.400 34.053
644 4 61 -0.67072 42.729 10.468 34.933
645 4 61 -0.67072 41.442 9.224 33.253
646 4 61 -0.67072 40.298 10.862 34.584
647 4 26 0.016092 41.242 13.438 30.078
648 4 26 0.016092 42.654 12.939 30.826
649 4 26 0.016092 41.945 14.287 31.471
650 4 26 0.016092 40.046 10.189 31.583
651 4 26 0.016092 41.492 10.382 30.721
652 4 26 0.016092 40.078 11.131 30.073
653 4 20 0.009122 42.324 12.539 33.543
654 4 20 0.009122 42.993 11.413 32.496
655 4 26 0.110917 37.327 12.486 33.397
656 4 5 -0.011873 37.114 14.672 33.686
657 4 1 0.615339 37.709 15.753 34.633
658 4 61 -0.561397 38.189 16.817 34.212
659 4 63 -0.237444 37.407 15.499 35.911
660 4 5 -0.084855 37.875 16.320 36.949
661 4 5 0.13222 39.423 16.131 37.077
662 4 63 -0.455502 39.986 16.533 38.383
663 4 5 0.114684 39.853 15.668 39.565
664 4 5 0.021605 40.961 14.626 39.617
665 4 63 -0.293251 40.263 13.526 39.019
666 4 5 -0.032933 41.029 12.289 38.810
667 4 5 0.124764 40.131 11.428 37.907
668 4 63 -0.408629 38.855 10.884 38.511
669 4 5 0.12378 38.820 9.818 39.457
670 4 5 0.151903 39.034 8.505 38.761
671 4 63 -0.326818 38.196 8.359 37.580
672 4 20 0.114474 37.525 17.363 36.978
673 4 20 0.114474 37.399 15.984 37.902
674 4 20 0.076629 39.676 15.094 36.798
675 4 20 0.076629 39.910 16.782 36.294
676 4 20 0.048212 39.750 16.248 40.451
677 4 20 0.048212 38.861 15.164 39.551
678 4 20 0.054681 41.860 14.901 39.039
679 4 20 0.054681 41.295 14.370 40.644
680 4 20 0.058887 41.997 12.523 38.316
681 4 20 0.058887 41.198 11.739 39.743
682 4 20 0.087894 39.820 11.967 37.080
683 4 20 0.087894 40.806 10.549 37.620
684 4 20 0.02648 39.650 9.937 40.260
685 4 20 0.02648 37.868 9.818 40.021
686 4 20 0.036537 38.818 7.660 39.467
687 4 20 0.036537 40.095 8.463 38.375
688 4 1 0.727713 36.904 8.200 37.874
689 4 61 -0.576378 36.485 8.047 38.986
690 4 5 -0.020814 36.019 8.334 36.643
691 4 26 0.067554 37.559 14.947 32.732
692 4 26 -0.02174 36.545 9.103 36.019
693 4 5 -0.024924 35.522 14.602 33.525
694 4 1 0.470545 34.833 14.590 34.936
695 4 61 -0.510544 34.096 15.462 35.440
696 4 63 -0.240725 35.047 13.366 35.513
697 4 5 -0.013005 34.719 13.179 36.896
698 4 5 0.119773 35.032 11.767 37.452
699 4 63 -0.420621 34.526 11.669 38.852
700 4 5 0.099176 33.122 11.537 39.076
701 4 5 0.161534 32.825 10.005 38.923
702 4 63 -0.458288 31.421 9.864 39.097
703 4 5 0.05472 30.934 8.605 38.801
704 4 5 0.076753 31.298 7.555 39.918
705 4 63 -0.389014 32.473 6.818 39.575
706 4 5 0.064058 32.237 5.564 38.799
707 4 5 -0.090567 33.629 5.181 38.194
708 4 63 -0.173198 34.182 6.072 37.235
709 4 20 0.101034 35.285 13.964 37.499
710 4 20 0.101034 33.629 13.289 37.020
711 4 20 0.049284 34.421 11.091 36.857
712 4 20 0.049284 36.111 11.494 37.449
713 4 20 0.046057 32.843 11.963 40.069
714 4 20 0.046057 32.617 12.077 38.284
715 4 20 0.088904 33.178 9.609 37.974
716 4 20 0.088904 33.310 9.430 39.703
717 4 20 0.069914 29.876 8.720 38.687
718 4 20 0.069914 31.360 8.199 37.818
719 4 20 0.06545 31.431 8.069 40.931
720 4 20 0.06545 30.488 6.805 40.021
721 4 20 0.050458 31.832 4.808 39.439
722 4 20 0.050458 31.504 5.786 37.969
723 4 20 0.129934 33.581 4.163 37.853
724 4 20 0.129934 34.340 5.204 39.022
725 4 1 0.480209 35.380 5.834 36.706
726 4 61 -0.503245 36.039 4.908 37.070
727 4 5 0.005732 35.904 6.973 35.817
728 4 26 0.086901 35.216 15.588 33.217
729 4 26 0.055053 36.964 6.749 35.483
730 4 5 -0.061618 35.020 13.427 32.523
731 4 1 0.006984 35.829 13.430 31.226
732 4 61 -0.316241 36.400 12.424 30.823
733 4 63 -0.165503 35.721 14.629 30.620
734 4 5 0.105106 36.688 14.962 29.522
735 4 5 0.117578 36.184 14.429 28.138
736 4 63 -0.320653 36.562 13.029 27.881
737 4 5 0.063637 37.941 12.729 27.635
738 4 5 0.029282 38.315 11.284 27.458
739 4 63 -0.194674 37.551 10.499 28.415
740 4 5 -0.009242 37.769 9.115 28.346
741 4 5 0.038187 36.823 8.303 29.332
742 4 63 -0.384229 37.356 8.237 30.576
743 4 5 -0.014226 37.089 9.388 31.356