LAMMPS Description

6504  atoms
5338  bonds
7038  angles
8415  dihedrals
306  impropers

90  atom types
840  bond types
4614  angle types
985  dihedral types
38  improper types

-0.5 45.5 xlo xhi
-0.5 45.5 ylo yhi
-0.5 45.5 zlo zhi

Masses

1 12.01
2 12.01
3 12.01
4 12.01
5 12.01
6 12.01
7 12.01
8 12.01
9 12.01
10 12.01
11 12.01
12 12.01
13 12.01
14 12.01
15 12.01
16 12.01
17 12.01
18 12.01
19 12.01
20 1.008
21 1.008
22 1.008
23 1.008
24 1.008
25 1.008
26 1.008
27 1.008
28 1.008
29 1.008
30 1.008
31 1.008
32 1.008
33 19.00
34 35.45
35 79.90
36 126.9
37 14.01
38 14.01
39 14.01
40 14.01
41 14.01
42 14.01
43 14.01
44 14.01
45 14.01
46 14.01
47 14.01
48 14.01
49 14.01
50 14.01
51 14.01
52 14.01
53 14.01
54 14.01
55 14.01
56 14.01
57 14.01
58 14.01
59 14.01
60 14.01
61 16.00
62 16.00
63 16.00
64 16.00
65 30.97
66 30.97
67 30.97
68 30.97
69 30.97
70 30.97
71 30.97
72 30.97
73 30.97
74 30.97
75 30.97
76 32.06
77 32.06
78 32.06
79 32.06
80 32.06
81 32.06
82 32.06
83 32.06
84 6.94
85 39.10
86 22.99
87 35.45
88 19.00
89 79.90
90 126.9

Atoms

1 1 5 -0.09344 26.474083 20.884785 2.421649
2 1 26 0.035118 25.781055 20.015879 2.412203
3 1 26 0.035118 26.464444 21.327679 1.399250
4 1 5 0.036984 26.046530 21.930746 3.484068
5 1 5 -0.09344 24.625983 22.388204 3.074797
6 1 26 0.035118 23.884319 21.571066 3.197641
7 1 26 0.035118 24.604879 22.705003 2.008092
8 1 26 0.035118 24.315782 23.297361 3.621697
9 1 1 0.688061 27.017342 23.110593 3.292460
10 1 61 -0.542596 28.214341 22.930719 3.474864
11 1 63 -0.317496 26.574410 24.290663 2.749863
12 1 5 -0.024694 27.359451 25.284983 2.168745
13 1 20 0.116304 28.439385 25.086938 2.329394
14 1 20 0.116304 27.160718 25.246612 1.080805
15 1 5 -0.142941 26.973489 26.691768 2.692506
16 1 32 0.134731 27.171379 26.695308 3.779453
17 1 32 0.134731 25.871391 26.806954 2.578461
18 1 41 0.013876 27.659788 27.853044 2.023166
19 1 5 -0.13938 29.138238 27.737665 2.062784
20 1 32 0.127846 29.499251 26.873322 1.467685
21 1 32 0.127846 29.513140 27.629508 3.097737
22 1 32 0.127846 29.622839 28.644205 1.633480
23 1 5 -0.13938 27.273706 29.104947 2.722583
24 1 32 0.127846 27.716478 30.001839 2.231833
25 1 32 0.127846 27.637705 29.117541 3.765800
26 1 32 0.127846 26.169010 29.237956 2.739622
27 1 5 -0.13938 27.229056 27.986038 0.610917
28 1 32 0.127846 27.552882 27.122106 -0.003630
29 1 32 0.127846 27.677625 28.891832 0.140547
30 1 32 0.127846 26.123216 28.083296 0.537040
31 1 5 0.027787 26.113817 21.171437 4.911003
32 1 26 0.014377 25.581958 20.208722 4.738341
33 1 26 0.014377 27.183282 20.904067 5.058948
34 1 5 0.089535 25.555924 21.643690 6.338466
35 1 5 0.053431 24.026500 21.867040 6.170162
36 1 26 -0.004779 23.479455 22.210554 7.046290
37 1 26 -0.004779 23.530727 20.941586 5.804228
38 1 26 -0.004779 23.803068 22.687821 5.489280
39 1 1 0.342246 26.213079 22.946940 6.775625
40 1 61 -0.446344 25.894045 23.454052 7.836948
41 1 63 -0.300104 27.082831 23.584764 5.952094
42 1 5 0.004912 28.029898 24.556902 6.235896
43 1 20 0.105203 28.863358 24.078506 6.788322
44 1 20 0.105203 28.429185 24.905073 5.263596
45 1 5 -0.073441 27.481943 25.765711 7.031146
46 1 32 0.139671 27.208150 25.385725 8.036621
47 1 32 0.139671 26.541255 26.121225 6.551502
48 1 41 0.021043 28.439966 26.909703 7.187135
49 1 5 -0.136418 29.821414 26.458609 7.496732
50 1 32 0.12817 30.308206 26.004132 6.605341
51 1 32 0.12817 29.841783 25.667307 8.257296
52 1 32 0.12817 30.466856 27.304499 7.821438
53 1 5 -0.136418 27.932912 27.797979 8.260780
54 1 32 0.12817 28.615139 28.658631 8.439922
55 1 32 0.12817 27.816525 27.257561 9.210157
56 1 32 0.12817 26.926412 28.201918 8.006820
57 1 5 -0.136418 28.494170 27.715925 5.956541
58 1 32 0.12817 28.899686 27.118947 5.122267
59 1 32 0.12817 29.158333 28.601451 6.081039
60 1 32 0.12817 27.479348 28.083825 5.693240
61 1 5 0.070225 25.829992 20.441732 7.414858
62 1 26 -0.037075 25.236904 19.585193 7.025111
63 1 26 -0.037075 26.893720 20.128383 7.338650
64 1 5 0.048012 25.501144 20.510950 8.995629
65 1 5 -0.070214 24.122284 21.199386 9.214754
66 1 26 0.050326 23.809757 21.192281 10.281634
67 1 26 0.050326 23.319213 20.675569 8.652204
68 1 26 0.050326 24.154682 22.275780 8.981386
69 1 1 0.398379 26.487752 21.353150 9.822742
70 1 61 -0.44145 26.236807 21.468349 11.012271
71 1 63 -0.273148 27.580600 21.984655 9.293017
72 1 5 -0.022225 28.431907 22.949319 9.868313
73 1 20 0.108766 29.417018 22.460449 9.990399
74 1 20 0.108766 28.571228 23.759784 9.131860
75 1 5 -0.042085 27.946906 23.608263 11.212321
76 1 32 0.123655 27.764848 22.810302 11.936944
77 1 32 0.123655 26.960176 24.090455 11.024017
78 1 41 -0.017049 28.874621 24.581164 11.885963
79 1 5 -0.06158 30.267546 24.076997 11.959172
80 1 32 0.099286 30.718847 23.971054 10.949164
81 1 32 0.099286 30.318956 23.102133 12.480545
82 1 32 0.099286 30.921929 24.781534 12.518525
83 1 5 -0.06158 28.384692 24.819389 13.265117
84 1 32 0.099286 29.031461 25.541123 13.812682
85 1 32 0.099286 28.378961 23.885768 13.846848
86 1 32 0.099286 27.343690 25.213995 13.262141
87 1 5 -0.06158 28.870024 25.887482 11.213943
88 1 32 0.099286 29.240467 25.786705 10.196977
89 1 32 0.099286 29.536146 26.614811 11.732264
90 1 32 0.099286 27.845066 26.317982 11.198890
91 1 5 -0.28579 26.232198 16.927688 8.735055
92 1 26 0.084372 25.229698 16.697608 8.316117
93 1 26 0.084372 26.809354 17.501683 7.979650
94 1 5 0.006458 26.111433 17.736846 10.044168
95 1 1 -0.029374 27.506441 17.924406 10.626518
96 1 61 -0.18442 28.235913 16.946004 10.733900
97 1 63 -0.000363 27.888769 19.097312 11.179423
98 1 5 -0.092975 28.955252 19.202868 12.059624
99 1 20 0.087372 29.927315 18.988925 11.564280
100 1 20 0.087372 28.816147 18.476296 12.858053
101 1 5 0.030944 28.926237 20.581823 12.673157
102 1 20 0.067652 29.260289 21.250940 11.871811
103 1 20 0.067652 27.871389 20.798866 12.947929
104 1 63 -0.285021 29.759935 20.738236 13.775397
105 1 1 0.605908 29.382962 21.425745 14.901626
106 1 5 -0.232196 25.289728 19.085881 9.728891
107 1 26 0.134336 24.357464 18.686711 9.266148
108 1 26 0.134336 25.000108 19.424956 10.741989
109 1 61 -0.520489 28.237060 21.841645 15.008416
110 1 5 0.139497 30.392324 21.823309 15.974230
111 1 5 -0.167102 31.771294 21.194073 15.677594
112 1 26 0.052656 32.508481 21.479820 16.457985
113 1 26 0.052656 32.154772 21.554814 14.697606
114 1 26 0.052656 31.739313 20.099871 15.580191
115 1 5 -0.167102 30.583199 23.358047 15.859261
116 1 26 0.052656 30.945431 23.640147 14.847561
117 1 26 0.052656 31.323077 23.726159 16.601764
118 1 26 0.084372 26.759640 15.966081 8.888136
119 1 5 -0.044378 25.409324 14.445399 11.121247
120 1 26 0.024723 24.453834 14.393462 10.557867
121 1 26 0.024723 26.247819 14.475838 10.402356
122 1 5 0.190325 25.432176 15.683712 12.043059
123 1 1 0.471673 26.713889 15.743009 12.847270
124 1 61 -0.462293 27.567507 14.868659 12.769388
125 1 63 -0.218161 26.858882 16.768352 13.706414
126 1 5 -0.168922 27.819874 16.907021 14.678281
127 1 20 0.162013 28.842515 16.886167 14.251874
128 1 20 0.162013 27.758634 16.066618 15.393594
129 1 5 0.003916 27.510628 18.234113 15.344284
130 1 20 0.090407 27.544721 19.046750 14.594170
131 1 20 0.090407 26.474683 18.199346 15.712482
132 1 63 -0.111986 28.379468 18.531042 16.368047
133 1 1 -0.008443 28.241503 19.675051 17.088504
134 1 5 -0.104696 25.214509 16.998727 11.165502
135 1 26 0.070165 24.203645 16.883969 10.713117
136 1 26 0.070165 25.131221 17.767735 11.962573
137 1 61 -0.360148 27.231844 20.359436 16.967097
138 1 5 0.015227 29.348354 20.162204 17.990167
139 1 5 -0.027558 30.527630 19.163876 18.032202
140 1 26 0.031837 31.361572 19.569939 18.643768
141 1 26 0.031837 30.895840 18.925552 17.027509
142 1 26 0.031837 30.262841 18.181639 18.432541
143 1 5 -0.021337 29.859873 21.556346 17.445937
144 1 26 0.035615 28.991883 22.246093 17.557363
145 1 26 0.035615 30.635946 21.929335 18.151592
146 1 26 0.024723 25.532435 13.501408 11.674074
147 1 5 -0.019422 24.055086 13.201930 13.924605
148 1 26 0.016009 23.319331 13.023187 13.112470
149 1 26 0.016009 25.058430 12.843722 13.629869
150 1 5 -0.002137 24.077697 14.684994 14.311900
151 1 1 0.696696 25.011871 14.941144 15.500310
152 1 61 -0.554869 25.846622 14.096342 15.800308
153 1 63 -0.373459 24.833294 16.030519 16.314922
154 1 5 -0.061606 25.573056 16.232881 17.480810
155 1 20 0.141709 26.645517 16.250889 17.218904
156 1 20 0.141709 25.423573 15.399482 18.201334
157 1 5 -0.168159 25.255374 17.570013 18.167824
158 1 20 0.170199 25.216700 18.369974 17.404613
159 1 20 0.170199 24.267082 17.554481 18.674806
160 1 63 -0.274282 26.281612 17.861560 19.055484
161 1 1 0.690004 26.566623 19.102738 19.543048
162 1 5 -0.075391 24.217153 15.661835 13.085667
163 1 26 0.003936 23.291099 15.542241 12.480669
164 1 26 0.003936 24.142926 16.666134 13.559516
165 1 61 -0.60894 25.787630 20.028162 19.352201
166 1 5 0.174554 27.897793 19.373785 20.252551
167 1 5 -0.097163 27.585476 20.003475 21.632397
168 1 26 0.028372 27.043486 20.967948 21.519689
169 1 26 0.028372 28.522980 20.207281 22.195323
170 1 26 0.028372 26.952938 19.327589 22.247508
171 1 5 -0.062472 28.777069 20.418959 19.449483
172 1 26 0.047267 28.129746 21.323143 19.388138
173 1 26 0.047267 29.643921 20.711715 20.084300
174 1 26 0.016009 23.745370 12.596477 14.804844
175 1 26 0.035118 27.501294 20.509172 2.615736
176 1 26 0.052656 29.627855 23.900143 16.033435
177 1 26 0.046259 23.059853 14.874267 14.722643
178 1 5 -0.097163 28.635911 18.048020 20.522110
179 1 26 0.028372 28.042329 17.412383 21.214506
180 1 26 0.028372 29.627120 18.235126 20.989430
181 1 26 0.028372 28.747405 17.444049 19.605576
182 2 5 -0.09344 26.176701 9.276546 12.984796
183 2 26 0.035118 25.800921 10.299289 13.204250
184 2 26 0.035118 25.333544 8.702741 12.536039
185 2 5 0.036984 27.392471 9.320949 12.022766
186 2 5 -0.09344 26.876683 9.987622 10.724987
187 2 26 0.035118 26.631304 11.058260 10.887452
188 2 26 0.035118 25.954600 9.482028 10.360564
189 2 26 0.035118 27.589295 9.861484 9.889425
190 2 1 0.688061 27.715245 7.845450 11.722850
191 2 61 -0.542596 28.053755 7.112431 12.642919
192 2 63 -0.317496 27.451333 7.316830 10.484272
193 2 5 -0.024694 27.321473 5.965764 10.167387
194 2 20 0.116304 27.613239 5.324073 11.024355
195 2 20 0.116304 26.248500 5.793698 9.958334
196 2 5 -0.142941 28.136900 5.598518 8.901469
197 2 32 0.134731 29.199101 5.791235 9.136454
198 2 32 0.134731 27.862058 6.319859 8.098336
199 2 41 0.013876 27.952372 4.196041 8.385145
200 2 5 -0.13938 28.224994 3.169764 9.421065
201 2 32 0.127846 27.488557 3.216524 10.249941
202 2 32 0.127846 29.239097 3.278850 9.848936
203 2 32 0.127846 28.159631 2.142603 8.994895
204 2 5 -0.13938 28.890434 3.974702 7.255300
205 2 32 0.127846 28.756856 2.965087 6.803491
206 2 32 0.127846 29.943931 4.024063 7.584941
207 2 32 0.127846 28.743742 4.728928 6.450340
208 2 5 -0.13938 26.579134 3.995223 7.864034
209 2 32 0.127846 25.817740 4.063431 8.666864
210 2 32 0.127846 26.468306 2.982502 7.411223
211 2 32 0.127846 26.336526 4.742499 7.076303
212 2 5 0.027787 28.539728 10.163926 12.791148
213 2 26 0.014377 28.013030 11.069370 13.168334
214 2 26 0.014377 28.798344 9.566531 13.693016
215 2 5 0.089535 29.916824 10.755886 12.220963
216 2 5 0.053431 29.543597 11.716683 11.056953
217 2 26 -0.004779 30.366729 12.201780 10.535421
218 2 26 -0.004779 28.851448 12.512416 11.408952
219 2 26 -0.004779 29.089028 11.189957 10.218423
220 2 1 0.342246 30.810375 9.641340 11.691083
221 2 61 -0.446344 31.894931 9.918760 11.209284
222 2 63 -0.300104 30.368031 8.358541 11.675398
223 2 5 0.004912 31.077273 7.172008 11.567478
224 2 20 0.105203 31.616141 7.001947 12.521100
225 2 20 0.105203 30.328987 6.363354 11.457172
226 2 5 -0.073441 32.064497 7.127160 10.376985
227 2 32 0.139671 32.857927 7.870959 10.595075
228 2 32 0.139671 31.540742 7.472134 9.456106
229 2 41 0.021043 32.702917 5.791797 10.131865
230 2 5 -0.136418 33.119371 5.119222 11.389618
231 2 32 0.12817 32.240097 4.739165 11.955769
232 2 32 0.12817 33.620590 5.805796 12.084188
233 2 32 0.12817 33.777567 4.244953 11.189641
234 2 5 -0.136418 33.871066 5.991269 9.240523
235 2 32 0.12817 34.402691 5.034949 9.037855
236 2 32 0.12817 34.595433 6.693260 9.675742
237 2 32 0.12817 33.561786 6.428396 8.263809
238 2 5 -0.136418 31.775898 4.892466 9.425369
239 2 32 0.12817 30.896197 4.674417 10.054193
240 2 32 0.12817 32.259621 3.917906 9.186596
241 2 32 0.12817 31.446283 5.353911 8.469878
242 2 5 0.070225 30.647706 11.591988 13.423120
243 2 26 -0.037075 29.934654 12.412788 13.657981
244 2 26 -0.037075 30.681033 10.955023 14.333438
245 2 5 0.048012 32.098801 12.296211 13.322321
246 2 5 -0.070214 32.247599 12.995067 11.939326
247 2 26 0.050326 33.195618 13.569544 11.854525
248 2 26 0.050326 31.426054 13.724240 11.768613
249 2 26 0.050326 32.332538 12.268877 11.114968
250 2 1 0.398379 33.291635 11.327313 13.394427
251 2 61 -0.44145 34.400498 11.823008 13.268204
252 2 63 -0.273148 33.165050 9.973960 13.556087
253 2 5 -0.022225 34.129899 8.955376 13.422597
254 2 20 0.108766 34.287289 8.542234 14.436936
255 2 20 0.108766 33.685627 8.145745 12.817825
256 2 5 -0.042085 35.493342 9.357496 12.747978
257 2 32 0.123655 35.922203 10.188071 13.314715
258 2 32 0.123655 35.271333 9.754861 11.730915
259 2 41 -0.017049 36.567077 8.307957 12.667059
260 2 5 -0.06158 36.747841 7.583217 13.948409
261 2 32 0.099286 35.847139 6.988843 14.213870
262 2 32 0.099286 36.977987 8.278277 14.778323
263 2 32 0.099286 37.589725 6.858785 13.886009
264 2 5 -0.06158 37.845825 8.970445 12.313843
265 2 32 0.099286 38.679992 8.237953 12.232256
266 2 32 0.099286 38.134047 9.703218 13.081998
267 2 32 0.099286 37.764492 9.517997 11.347934
268 2 5 -0.06158 36.295419 7.336870 11.598746
269 2 32 0.099286 35.374970 6.797782 11.807932
270 2 32 0.099286 37.107053 6.577409 11.522250
271 2 32 0.099286 36.215573 7.847657 10.614460
272 2 5 -0.28579 30.988992 13.758799 16.495847
273 2 26 0.084372 30.348534 14.511005 15.988451
274 2 26 0.084372 30.540268 12.753657 16.349041
275 2 5 0.006458 32.427136 13.789717 15.935590
276 2 1 -0.029374 33.280907 12.820213 16.742740
277 2 61 -0.18442 33.242110 12.879459 17.965817
278 2 63 -0.000363 34.197726 12.023879 16.148702
279 2 5 -0.092975 35.250295 11.441982 16.839193
280 2 20 0.087372 34.899268 10.683370 17.572221
281 2 20 0.087372 35.776397 12.222026 17.386453
282 2 5 0.030944 36.207217 10.852243 15.831578
283 2 20 0.067652 35.697640 9.958965 15.452302
284 2 20 0.067652 36.336048 11.601412 15.020738
285 2 63 -0.285021 37.441308 10.484853 16.357408
286 2 1 0.605908 38.626771 10.720786 15.707653
287 2 5 -0.232196 32.356164 13.517548 14.349595
288 2 26 0.134336 31.640071 14.302095 14.011541
289 2 26 0.134336 33.353827 13.855841 14.009822
290 2 61 -0.520489 38.635946 11.369013 14.669777
291 2 5 0.139497 39.931706 10.071852 16.158628
292 2 5 -0.167102 39.726261 9.313908 17.488591
293 2 26 0.052656 40.675222 8.841711 17.821175
294 2 26 0.052656 38.971359 8.507319 17.357817
295 2 26 0.052656 39.324395 9.945852 18.292916
296 2 5 -0.167102 40.284420 8.996882 15.097920
297 2 26 0.052656 39.473896 8.242094 15.010324
298 2 26 0.052656 41.221021 8.462641 15.365507
299 2 26 0.084372 30.961447 13.973806 17.581817
300 2 5 -0.044378 32.401271 16.576115 18.108606
301 2 26 0.024723 31.682569 17.143600 17.480526
302 2 26 0.024723 31.883136 15.704265 18.547034
303 2 5 0.190325 33.619306 16.126905 17.272974
304 2 1 0.471673 34.626241 15.387016 18.128372
305 2 61 -0.462293 34.464037 15.234204 19.332347
306 2 63 -0.218161 35.748032 14.950980 17.526760
307 2 5 -0.168922 36.877210 14.457590 18.134036
308 2 20 0.162013 36.654043 13.570165 18.759116
309 2 20 0.162013 37.307333 15.219612 18.809326
310 2 5 0.003916 37.818546 14.124335 16.992460
311 2 20 0.090407 37.342964 13.387856 16.317455
312 2 20 0.090407 37.968929 15.035823 16.395355
313 2 63 -0.111986 39.024018 13.623875 17.425493
314 2 1 -0.008443 39.996798 13.286523 16.538507
315 2 5 -0.104696 33.117634 15.245324 16.040947
316 2 26 0.070165 32.476170 15.925919 15.436810
317 2 26 0.070165 34.068326 15.110137 15.482789
318 2 61 -0.360148 39.889964 13.604113 15.359416
319 2 5 0.015227 41.182998 12.458436 16.965864
320 2 5 -0.027558 41.158343 12.172174 18.484601
321 2 26 0.031837 41.998975 11.504105 18.769874
322 2 26 0.031837 40.210829 11.718920 18.798549
323 2 26 0.031837 41.215082 13.069932 19.105879
324 2 5 -0.021337 41.149636 11.090249 16.173134
325 2 26 0.035615 41.289565 11.372156 15.104246
326 2 26 0.035615 42.059374 10.514459 16.456333
327 2 26 0.024723 32.682638 17.209430 18.963964
328 2 5 -0.019422 34.455428 19.199399 18.479837
329 2 26 0.016009 33.506527 19.598048 18.063288
330 2 26 0.016009 34.259206 18.564871 19.363440
331 2 5 -0.002137 35.237193 18.438903 17.402583
332 2 1 0.696696 36.598471 17.965299 17.925301
333 2 61 -0.554869 36.797566 17.928543 19.133401
334 2 63 -0.373459 37.637546 17.719922 17.063712
335 2 5 -0.061606 38.927472 17.416065 17.501042
336 2 20 0.141709 38.879308 16.520566 18.145133
337 2 20 0.141709 39.348502 18.241661 18.115190
338 2 5 -0.168159 39.889895 17.089887 16.348574
339 2 20 0.170199 39.385275 16.411118 15.635442
340 2 20 0.170199 40.185171 17.998269 15.781434
341 2 63 -0.274282 40.993929 16.431880 16.872252
342 2 1 0.690004 41.850489 15.647893 16.157311
343 2 5 -0.075391 34.377137 17.377567 16.620801
344 2 26 0.003936 33.605686 17.949397 16.058862
345 2 26 0.003936 35.089949 16.996300 15.855822
346 2 61 -0.60894 41.786863 15.630298 14.934484
347 2 5 0.174554 42.835886 14.717520 16.873045
348 2 5 -0.097163 44.256230 15.018826 16.334656
349 2 26 0.028372 44.320030 14.825764 15.241348
350 2 26 0.028372 45.013472 14.376000 16.835352
351 2 26 0.028372 44.534261 16.080631 16.509461
352 2 5 -0.062472 42.527813 13.196259 16.554787
353 2 26 0.047267 42.604263 13.133398 15.445489
354 2 26 0.047267 43.364831 12.577044 16.949888
355 2 26 0.016009 35.061534 20.062189 18.834164
356 2 26 0.035118 26.441115 8.788504 13.946990
357 2 26 0.052656 40.426705 9.450126 14.092330
358 2 26 0.046259 35.493271 19.219484 16.650481
359 2 5 -0.097163 42.855082 15.024223 18.383243
360 2 26 0.028372 43.224257 16.057763 18.560132
361 2 26 0.028372 43.527196 14.320811 18.921170
362 2 26 0.028372 41.842669 15.004287 18.821270
363 3 5 -0.09344 43.502999 11.847695 27.602847
364 3 26 0.035118 43.940073 10.980947 28.144222
365 3 26 0.035118 43.597897 11.639555 26.512333
366 3 5 0.036984 42.019559 12.065751 27.999617
367 3 5 -0.09344 41.283000 10.764208 27.601885
368 3 26 0.035118 41.600465 9.907914 28.233429
369 3 26 0.035118 41.494974 10.498278 26.542161
370 3 26 0.035118 40.185325 10.892945 27.622552
371 3 1 0.688061 41.528790 13.206403 27.088966
372 3 61 -0.542596 42.055997 14.307457 27.179337
373 3 63 -0.317496 40.647067 12.948052 26.069661
374 3 5 -0.024694 40.407823 13.748896 24.954282
375 3 20 0.116304 40.914076 14.731529 25.051380
376 3 20 0.116304 40.847105 13.219700 24.087354
377 3 5 -0.142941 38.889576 13.933828 24.703157
378 3 32 0.134731 38.478518 14.452671 25.587725
379 3 32 0.134731 38.420820 12.923367 24.691782
380 3 41 0.013876 38.516729 14.661643 23.438699
381 3 5 -0.13938 39.164542 15.992404 23.338149
382 3 32 0.127846 40.267225 15.907012 23.246705
383 3 32 0.127846 38.935338 16.626905 24.214649
384 3 32 0.127846 38.812104 16.542813 22.436045
385 3 5 -0.13938 37.045070 14.859734 23.416703
386 3 32 0.127846 36.711630 15.350332 22.473608
387 3 32 0.127846 36.710520 15.519004 24.237918
388 3 32 0.127846 36.502458 13.892327 23.506318
389 3 5 -0.13938 38.872563 13.865721 22.239717
390 3 32 0.127846 39.969191 13.740468 22.136626
391 3 32 0.127846 38.525093 14.370305 21.308275
392 3 32 0.127846 38.398908 12.859536 22.272007
393 3 5 0.027787 42.021874 12.367780 29.588955
394 3 26 0.014377 42.669844 11.572478 30.021548
395 3 26 0.014377 42.585682 13.318456 29.713313
396 3 5 0.089535 40.788106 12.427402 30.611784
397 3 5 0.053431 40.090830 11.038940 30.554093
398 3 26 -0.004779 39.211062 10.903086 31.180520
399 3 26 -0.004779 40.808909 10.226515 30.800042
400 3 26 -0.004779 39.645694 10.842310 29.579211
401 3 1 0.342246 39.795875 13.509807 30.205216
402 3 61 -0.446344 38.789762 13.683065 30.870851
403 3 63 -0.300104 39.985226 14.217797 29.063118
404 3 5 0.004912 39.440827 15.429004 28.664197
405 3 20 0.105203 39.903141 16.233639 29.270433
406 3 20 0.105203 39.748131 15.584363 27.611843
407 3 5 -0.073441 37.898530 15.497639 28.766681
408 3 32 0.139671 37.650687 15.458626 29.847136
409 3 32 0.139671 37.461399 14.585016 28.300442
410 3 41 0.021043 37.276703 16.724943 28.168421
411 3 5 -0.136418 38.037448 17.961569 28.484270
412 3 32 0.12817 38.990239 18.008154 27.911459
413 3 32 0.12817 38.344640 18.005467 29.537236
414 3 32 0.12817 37.459908 18.876597 28.225951
415 3 5 -0.136418 35.884721 16.831943 28.668211
416 3 32 0.12817 35.374435 17.739298 28.275067
417 3 32 0.12817 35.852300 16.876444 29.765427
418 3 32 0.12817 35.282373 15.942192 28.374567
419 3 5 -0.136418 37.195991 16.607206 26.703185
420 3 32 0.12817 38.206832 16.559400 26.264147
421 3 32 0.12817 36.683013 17.487743 26.253433
422 3 32 0.12817 36.623669 15.697367 26.421795
423 3 5 0.070225 41.384027 12.691478 32.112977
424 3 26 -0.037075 42.019440 11.801206 32.315415
425 3 26 -0.037075 42.082696 13.555114 32.074154
426 3 5 0.048012 40.495782 12.900372 33.446826
427 3 5 -0.070214 39.308688 11.893389 33.449374
428 3 26 0.050326 38.717564 11.937379 34.389901
429 3 26 0.050326 39.671393 10.846467 33.358985
430 3 26 0.050326 38.556723 12.137165 32.681744
431 3 1 0.398379 39.829211 14.281669 33.567306
432 3 61 -0.44145 39.108529 14.452486 34.538214
433 3 63 -0.273148 39.978985 15.282743 32.645818
434 3 5 -0.022225 39.273528 16.495032 32.508151
435 3 20 0.108766 39.994951 17.301722 32.738676
436 3 20 0.108766 39.001942 16.609447 31.444301
437 3 5 -0.042085 37.954553 16.644989 33.352904
438 3 32 0.123655 38.204780 16.491232 34.405858
439 3 32 0.123655 37.267427 15.814494 33.070523
440 3 41 -0.017049 37.228165 17.959719 33.283397
441 3 5 -0.06158 38.141617 19.119327 33.427267
442 3 32 0.099286 38.852325 19.189524 32.575810
443 3 32 0.099286 38.715640 19.068444 34.372118
444 3 32 0.099286 37.576943 20.077692 33.439275
445 3 5 -0.06158 36.231106 18.004054 34.380099
446 3 32 0.099286 35.654864 18.956391 34.374147
447 3 32 0.099286 36.722803 17.930739 35.361399
448 3 32 0.099286 35.510984 17.158221 34.306617
449 3 5 -0.06158 36.471993 18.094834 32.031180
450 3 32 0.099286 37.150331 18.090459 31.181804
451 3 32 0.099286 35.911773 19.057248 31.995181
452 3 32 0.099286 35.734504 17.269453 31.926525
453 3 5 -0.28579 43.786553 12.532464 35.020858
454 3 26 0.084372 43.770961 11.426336 34.922433
455 3 26 0.084372 43.883747 12.977585 34.008121
456 3 5 0.006458 42.502939 13.043985 35.709178
457 3 1 -0.029374 42.631914 14.547694 35.915529
458 3 61 -0.18442 43.655955 14.986175 36.425437
459 3 63 -0.000363 41.586840 15.380510 35.711024
460 3 5 -0.092975 41.521949 16.655013 36.253901
461 3 20 0.087372 42.291862 17.331398 35.822880
462 3 20 0.087372 41.698277 16.582368 37.325524
463 3 5 0.030944 40.124309 17.186132 36.045820
464 3 20 0.067652 40.071118 17.420475 34.976372
465 3 20 0.067652 39.418226 16.366574 36.300936
466 3 63 -0.285021 39.829220 18.330650 36.778931
467 3 1 0.605908 38.626154 18.519214 37.411580
468 3 5 -0.232196 41.236836 12.555514 34.841495
469 3 26 0.134336 41.404422 11.454860 34.786190
470 3 26 0.134336 40.399219 12.695902 35.551359
471 3 61 -0.520489 37.799277 17.617386 37.432831
472 3 5 0.139497 38.217694 19.879056 37.969557
473 3 5 -0.167102 39.391632 20.877850 37.870715
474 3 26 0.052656 39.098367 21.868856 38.278160
475 3 26 0.052656 39.686101 21.019743 36.807362
476 3 26 0.052656 40.305663 20.527064 38.369998
477 3 5 -0.167102 37.104411 20.426247 37.038829
478 3 26 0.052656 37.468259 20.517969 35.993109
479 3 26 0.052656 36.762624 21.429884 37.370692
480 3 26 0.084372 44.698443 12.805233 35.586873
481 3 5 -0.044378 44.406746 11.861035 38.440996
482 3 26 0.024723 44.330027 10.800418 38.121210
483 3 26 0.024723 45.027454 12.411233 37.711058
484 3 5 0.190325 43.005176 12.497703 38.559028
485 3 1 0.471673 43.094833 13.932718 39.034164
486 3 61 -0.462293 44.165606 14.454706 39.317345
487 3 63 -0.218161 41.940358 14.604689 39.195782
488 3 5 -0.168922 41.767020 15.820189 39.812042
489 3 20 0.162013 42.369953 16.615541 39.330442
490 3 20 0.162013 42.102422 15.762495 40.863649
491 3 5 0.003916 40.279337 16.098050 39.712242
492 3 20 0.090407 39.971353 16.112776 38.649632
493 3 20 0.090407 39.742101 15.257682 40.176051
494 3 63 -0.111986 39.919467 17.287701 40.300770
495 3 1 -0.008443 38.621546 17.690014 40.320652
496 3 5 -0.104696 42.251173 12.376909 37.157730
497 3 26 0.070165 42.154202 11.283476 36.971531
498 3 26 0.070165 41.242856 12.753035 37.432425
499 3 61 -0.360148 37.732545 16.913197 39.990857
500 3 5 0.015227 38.254781 19.109630 40.675061
501 3 5 -0.027558 39.498188 19.933005 41.081399
502 3 26 0.031837 39.220594 20.991953 41.270951
503 3 26 0.031837 40.281182 19.893773 40.315131
504 3 26 0.031837 40.009729 19.554045 41.970157
505 3 5 -0.021337 37.570553 19.778782 39.415879
506 3 26 0.035615 36.628220 19.204930 39.260069
507 3 26 0.035615 37.255278 20.805312 39.709472
508 3 26 0.024723 44.969584 11.893566 39.386536
509 3 5 -0.019422 43.635486 11.164040 41.628212
510 3 26 0.016009 43.857116 10.192984 41.137519
511 3 26 0.016009 44.444447 11.892811 41.437535
512 3 5 -0.002137 42.274732 11.699787 41.168525
513 3 1 0.696696 41.899625 12.989296 41.908169
514 3 61 -0.554869 42.770701 13.619202 42.495485
515 3 63 -0.373459 40.588072 13.369218 42.041243
516 3 5 -0.061606 40.191147 14.460000 42.815930
517 3 20 0.141709 40.708636 15.362215 42.445381
518 3 20 0.141709 40.484411 14.325262 43.879835
519 3 5 -0.168159 38.682726 14.739357 42.729586
520 3 20 0.170199 38.362641 14.680238 41.672242
521 3 20 0.170199 38.086514 13.990665 43.293489
522 3 63 -0.274282 38.448842 16.028975 43.185971
523 3 1 0.690004 37.340142 16.770885 42.903433
524 3 5 -0.075391 42.087399 11.706635 39.605780
525 3 26 0.003936 42.095235 10.641950 39.282847
526 3 26 0.003936 41.036889 12.053381 39.483898
527 3 61 -0.60894 36.376908 16.247203 42.357906
528 3 5 0.174554 37.320318 18.278029 43.180921
529 3 5 -0.097163 36.075819 18.588904 44.048448
530 3 26 0.028372 35.137977 18.316152 43.516731
531 3 26 0.028372 36.023226 19.673407 44.290159
532 3 26 0.028372 36.101980 18.022575 45.004416
533 3 5 -0.062472 37.175517 19.109533 41.840000
534 3 26 0.047267 36.222637 18.740542 41.397052
535 3 26 0.047267 36.991727 20.175557 42.104471
536 3 26 0.016009 43.611535 10.993342 42.727123
537 3 26 0.035118 44.117214 12.745307 27.828567
538 3 26 0.052656 36.219419 19.752835 37.025034
539 3 26 0.046259 41.544737 10.948799 41.547556
540 3 5 -0.097163 38.555675 18.682230 44.008960
541 3 26 0.028372 38.529968 18.186152 45.003460
542 3 26 0.028372 38.579993 19.781625 44.172143
543 3 26 0.028372 39.495019 18.338718 43.543258
544 4 5 -0.09344 13.344872 30.741500 39.268850
545 4 26 0.035118 13.633937 31.424924 40.096345
546 4 26 0.035118 12.604333 30.017601 39.680091
547 4 5 0.036984 12.746772 31.529702 38.074453
548 4 5 -0.09344 11.495139 32.249551 38.631190
549 4 26 0.035118 11.771433 33.042913 39.357213
550 4 26 0.035118 10.826480 31.530812 39.155572
551 4 26 0.035118 10.859865 32.650932 37.820504
552 4 1 0.688061 12.289741 30.450356 37.075772
553 4 61 -0.542596 13.125376 29.701332 36.586785
554 4 63 -0.317496 10.952955 30.211377 36.878141
555 4 5 -0.024694 10.385881 29.061860 36.330696
556 4 20 0.116304 11.165277 28.390567 35.914528
557 4 20 0.116304 9.884014 28.532159 37.162638
558 4 5 -0.142941 9.325798 29.408842 35.254516
559 4 32 0.134731 9.853148 29.945320 34.445368
560 4 32 0.134731 8.615645 30.142289 35.700200
561 4 41 0.013876 8.546170 28.245384 34.701228
562 4 5 -0.13938 9.424807 27.182338 34.154761
563 4 32 0.127846 10.033993 26.703673 34.949327
564 4 32 0.127846 10.109064 27.574762 33.379406
565 4 32 0.127846 8.825898 26.371324 33.680926
566 4 5 -0.13938 7.671913 28.733383 33.604398
567 4 32 0.127846 7.034248 27.916893 33.194490
568 4 32 0.127846 8.262456 29.115744 32.752334
569 4 32 0.127846 6.998326 29.548023 33.952216
570 4 5 -0.13938 7.665918 27.652015 35.735993
571 4 32 0.127846 8.247651 27.188932 36.558215
572 4 32 0.127846 7.032560 26.842301 35.304549
573 4 32 0.127846 6.983096 28.417100 36.167501
574 4 5 0.027787 13.915238 32.527028 37.567258
575 4 26 0.014377 14.295771 33.004648 38.498161
576 4 26 0.014377 14.736536 31.869055 37.207159
577 4 5 0.089535 13.825312 33.754936 36.539603
578 4 5 0.053431 12.787893 34.754093 37.125089
579 4 26 -0.004779 12.584762 35.651009 36.542733
580 4 26 -0.004779 13.083436 35.075424 38.147617
581 4 26 -0.004779 11.783543 34.332816 37.156904
582 4 1 0.342246 13.356956 33.283913 35.168399
583 4 61 -0.446344 13.222498 34.094626 34.268390
584 4 63 -0.300104 13.008641 31.987097 34.972348
585 4 5 0.004912 12.882476 31.265906 33.794851
586 4 20 0.105203 13.897937 31.081408 33.390508
587 4 20 0.105203 12.447761 30.284879 34.068034
588 4 5 -0.073441 11.993398 31.944328 32.725656
589 4 32 0.139671 12.531019 32.858210 32.399906
590 4 32 0.139671 11.043038 32.279165 33.201096
591 4 41 0.021043 11.693029 31.100869 31.521822
592 4 5 -0.136418 12.880253 30.346261 31.043492
593 4 32 0.12817 13.129614 29.506533 31.729619
594 4 32 0.12817 13.786999 30.964604 31.021219
595 4 32 0.12817 12.707210 29.901962 30.038399
596 4 5 -0.136418 11.176742 31.986509 30.450401
597 4 32 0.12817 10.954778 31.419869 29.518790
598 4 32 0.12817 11.896192 32.777946 30.199536
599 4 32 0.12817 10.243741 32.503761 30.770817
600 4 5 -0.136418 10.629860 30.127054 31.819566
601 4 32 0.12817 10.966624 29.412101 32.589158
602 4 32 0.12817 10.358199 29.534671 30.916209
603 4 32 0.12817 9.716059 30.651666 32.172113
604 4 5 0.070225 15.299300 34.461795 36.461200
605 4 26 -0.037075 15.482365 34.827803 37.495531
606 4 26 -0.037075 16.064440 33.675638 36.282227
607 4 5 0.048012 15.694199 35.692716 35.491324
608 4 5 -0.070214 14.536312 36.732851 35.466167
609 4 26 0.050326 14.795957 37.642108 34.881538
610 4 26 0.050326 14.290038 37.082892 36.492125