LAMMPS Description

4107  atoms
3270  bonds
4122  angles
4374  dihedrals
0  impropers

90  atom types
840  bond types
4614  angle types
985  dihedral types
38  improper types

-0.5 40.5 xlo xhi
-0.5 40.5 ylo yhi
-0.5 40.5 zlo zhi

Masses

1 12.01
2 12.01
3 12.01
4 12.01
5 12.01
6 12.01
7 12.01
8 12.01
9 12.01
10 12.01
11 12.01
12 12.01
13 12.01
14 12.01
15 12.01
16 12.01
17 12.01
18 12.01
19 12.01
20 1.008
21 1.008
22 1.008
23 1.008
24 1.008
25 1.008
26 1.008
27 1.008
28 1.008
29 1.008
30 1.008
31 1.008
32 1.008
33 19.00
34 35.45
35 79.90
36 126.9
37 14.01
38 14.01
39 14.01
40 14.01
41 14.01
42 14.01
43 14.01
44 14.01
45 14.01
46 14.01
47 14.01
48 14.01
49 14.01
50 14.01
51 14.01
52 14.01
53 14.01
54 14.01
55 14.01
56 14.01
57 14.01
58 14.01
59 14.01
60 14.01
61 16.00
62 16.00
63 16.00
64 16.00
65 30.97
66 30.97
67 30.97
68 30.97
69 30.97
70 30.97
71 30.97
72 30.97
73 30.97
74 30.97
75 30.97
76 32.06
77 32.06
78 32.06
79 32.06
80 32.06
81 32.06
82 32.06
83 32.06
84 6.94
85 39.10
86 22.99
87 35.45
88 19.00
89 79.90
90 126.9

Atoms

1 1 5 0.23943 38.584517 22.359708 4.021890
2 1 63 -0.107446 37.476761 23.258383 4.093668
3 1 5 0.096748 38.741823 21.485189 5.285713
4 1 33 -0.083444 38.454197 21.531610 2.917416
5 1 33 -0.076564 38.830148 22.315689 6.391201
6 1 33 -0.076564 39.963961 20.848396 5.132308
7 1 5 0.239938 37.623804 24.312894 3.136970
8 1 5 0.031579 36.308452 25.112759 2.968679
9 1 33 -0.098346 37.978432 23.796245 1.895424
10 1 33 -0.098346 38.608676 25.193874 3.564465
11 1 5 0.417302 36.469917 26.199513 1.865930
12 1 63 -0.075238 36.018705 25.749329 4.209471
13 1 33 -0.094088 35.323054 24.208907 2.581721
14 1 33 -0.120596 37.477713 27.087638 2.200017
15 1 33 -0.120596 35.305482 26.921963 1.701470
16 1 33 -0.120596 36.775053 25.622829 0.645742
17 1 5 0.258717 34.643736 25.777295 4.563474
18 1 5 0.054096 34.424597 26.876116 5.611781
19 1 33 -0.09756 34.287483 24.557217 5.112868
20 1 33 -0.09756 33.812759 26.044545 3.485312
21 1 33 -0.120109 35.188121 26.604664 6.732909
22 1 33 -0.120109 33.091059 26.900884 5.979868
23 1 79 1.069374 34.885330 28.531664 4.981600
24 1 61 -0.610284 36.570124 28.551373 4.651162
25 1 61 -0.610284 34.496103 29.669471 6.206803
26 1 61 -0.610284 33.982835 28.866854 3.559071
27 1 5 0.244615 37.640115 20.399700 5.527375
28 1 33 -0.110109 36.430626 21.014103 5.804503
29 1 5 0.166751 38.046872 19.446157 6.697788
30 1 33 -0.110109 37.497252 19.639048 4.378919
31 1 33 -0.087619 38.196589 20.196255 7.853428
32 1 33 -0.087619 39.277544 18.899501 6.374995
33 1 5 0.133435 37.059666 18.266065 6.991838
34 1 33 -0.056543 35.860749 18.781907 7.446491
35 1 5 0.043406 37.677421 17.268292 8.033872
36 1 33 -0.056543 36.816429 17.567867 5.820507
37 1 33 -0.026439 38.025601 17.967924 9.179125
38 1 33 -0.026439 38.843546 16.794801 7.458216
39 1 5 -0.042189 36.762077 16.058832 8.476963
40 1 63 -0.05899 35.644149 16.683564 9.125059
41 1 5 0.198119 37.691261 14.968744 9.213462
42 1 33 -0.033517 36.277188 15.435597 7.338924
43 1 33 -0.070849 38.374260 15.560671 10.263447
44 1 33 -0.070849 38.642634 14.629358 8.267237
45 1 5 0.047327 35.181527 16.216376 10.371836
46 1 5 0.014492 34.148144 17.209898 10.950632
47 1 33 -0.023915 36.205421 16.117594 11.296353
48 1 33 -0.023915 34.521923 15.012617 10.194222
49 1 5 0.258874 34.722795 18.629792 11.144271
50 1 63 -0.046319 33.761092 16.720680 12.232648
51 1 33 -0.052305 33.090892 17.293252 10.046015
52 1 33 -0.07104 35.801962 18.609402 12.010119
53 1 33 -0.07104 33.751322 19.456234 11.677990
54 1 33 -0.07104 35.126814 19.169281 9.939468
55 1 5 0.242379 32.368815 16.543073 12.410006
56 1 5 0.030285 32.108774 16.147845 13.868492
57 1 33 -0.097617 31.911872 15.520822 11.592169
58 1 33 -0.097617 31.670843 17.710323 12.135329
59 1 33 -0.112266 32.777704 14.970626 14.155102
60 1 33 -0.112266 30.753666 15.944409 14.057730
61 1 79 1.088381 32.673628 17.438207 15.034175
62 1 61 -0.614813 34.369085 17.657073 14.864305
63 1 61 -0.614813 32.333807 16.916991 16.633855
64 1 61 -0.614813 31.841615 18.906348 14.711259
65 1 5 0.224162 37.128335 13.572613 9.695718
66 1 33 -0.097154 36.403626 13.701010 10.858530
67 1 5 0.152641 38.289172 12.556660 9.991544
68 1 33 -0.097154 36.314263 13.038990 8.711099
69 1 33 -0.114533 39.167040 13.143104 10.890289
70 1 33 -0.114533 38.967451 12.323266 8.805232
71 1 5 0.169008 37.847726 11.172323 10.577355
72 1 63 -0.058703 37.184844 11.431268 11.819174
73 1 5 0.283965 39.114602 10.250074 10.711086
74 1 33 -0.097241 36.961334 10.587633 9.685357
75 1 33 -0.09168 40.005077 10.777144 11.630175
76 1 33 -0.09168 39.765055 10.120992 9.496922
77 1 5 0.211916 36.879626 10.295439 12.617157
78 1 5 0.001658 35.772331 10.630429 13.641230
79 1 33 -0.094681 38.008579 9.906874 13.322611
80 1 33 -0.094681 36.415664 9.237339 11.847223
81 1 5 0.294487 36.115263 11.853504 14.514237
82 1 63 -0.046447 35.640110 9.508680 14.511514
83 1 33 -0.068202 34.605789 10.934530 12.942378
84 1 33 -0.089747 37.287552 11.640623 15.217965
85 1 33 -0.089747 35.092404 12.070298 15.420555
86 1 33 -0.089747 36.254560 12.990803 13.738830
87 1 5 0.23616 34.399069 8.833954 14.442051
88 1 5 0.049903 34.458200 7.603997 15.357759
89 1 33 -0.095009 34.153450 8.391090 13.150555
90 1 33 -0.095009 33.368315 9.661646 14.860017
91 1 33 -0.119297 35.481339 6.769086 14.942867
92 1 33 -0.119297 33.263797 6.910941 15.274681
93 1 79 1.089277 34.744487 8.053327 17.107708
94 1 61 -0.616384 36.027197 9.188489 17.239501
95 1 61 -0.616384 35.177092 6.628659 17.962175
96 1 61 -0.616384 33.296735 8.705629 17.762267
97 1 33 -0.083444 39.783047 23.058414 3.903911
98 1 33 -0.09168 38.788480 8.964422 11.098688
99 2 5 0.23943 17.430099 11.680765 18.317534
100 2 63 -0.107446 17.248761 11.984061 19.701377
101 2 5 0.096748 16.544767 10.512626 17.829254
102 2 33 -0.083444 17.159837 12.800666 17.545932
103 2 33 -0.076564 16.787858 9.407817 18.629218
104 2 33 -0.076564 17.002852 10.223658 16.552808
105 2 5 0.239938 18.357564 12.740693 20.198318
106 2 5 0.031579 18.049640 13.351296 21.587780
107 2 33 -0.098346 18.665706 13.780013 19.327120
108 2 33 -0.098346 19.463662 11.911350 20.330931
109 2 5 0.417302 19.237487 14.234760 22.069100
110 2 63 -0.075238 17.864637 12.280004 22.508023
111 2 33 -0.094088 16.914784 14.144987 21.446883
112 2 33 -0.120596 20.394535 13.482117 22.173024
113 2 33 -0.120596 18.979442 14.788637 23.306648
114 2 33 -0.120596 19.465569 15.277327 21.188439
115 2 5 0.258717 16.836131 12.482119 23.466127
116 2 5 0.054096 17.066697 11.531265 24.648112
117 2 33 -0.09756 15.610699 12.191635 22.890561
118 2 33 -0.09756 16.804519 13.777740 23.960845
119 2 33 -0.120109 17.035760 10.222349 24.201606
120 2 33 -0.120109 16.059487 11.704656 25.580791
121 2 79 1.069374 18.676233 11.828022 25.467606
122 2 61 -0.610284 19.938054 11.481786 24.355833
123 2 61 -0.610284 18.759180 10.777365 26.822770
124 2 61 -0.610284 18.754265 13.463869 25.985633
125 2 5 0.244615 15.004759 10.784055 17.757486
126 2 33 -0.110109 14.499784 10.955687 19.035256
127 2 5 0.166751 14.266916 9.610844 17.033798
128 2 33 -0.110109 14.784903 11.944967 17.035059
129 2 33 -0.087619 14.482096 8.441353 17.745523
130 2 33 -0.087619 14.845872 9.468758 15.783916
131 2 5 0.133435 12.724850 9.795977 16.830295
132 2 33 -0.056543 12.103707 9.806410 18.064912
133 2 5 0.043406 12.142895 8.662475 15.914048
134 2 33 -0.056543 12.485729 11.012628 16.212848
135 2 33 -0.026439 12.462556 7.429303 16.461242
136 2 33 -0.026439 12.809550 8.773361 14.706281
137 2 5 -0.042189 10.581083 8.684594 15.674820
138 2 63 -0.05899 10.022828 8.478782 16.980988
139 2 5 0.198119 10.249591 7.718264 14.429658
140 2 33 -0.033517 10.216854 9.958916 15.272188
141 2 33 -0.070849 10.756232 6.450670 14.665993
142 2 33 -0.070849 10.981159 8.244457 13.379151
143 2 5 0.047327 8.991877 7.539158 17.183430
144 2 5 0.014492 8.756538 7.340988 18.698459
145 2 33 -0.023915 9.315548 6.299874 16.661641
146 2 33 -0.023915 7.811086 8.033775 16.657362
147 2 5 0.258874 10.016925 6.850533 19.443239
148 2 63 -0.046319 7.750624 6.341214 18.844393
149 2 33 -0.052305 8.393585 8.575791 19.233799
150 2 33 -0.07104 10.448934 5.638951 18.933196
151 2 33 -0.07104 9.728264 6.680688 20.784675
152 2 33 -0.07104 11.042031 7.769476 19.340605
153 2 5 0.242379 6.633116 6.725755 19.622045
154 2 5 0.030285 5.717004 5.508580 19.795913
155 2 33 -0.097617 5.919645 7.720052 18.970136
156 2 33 -0.097617 7.019963 7.172924 20.877224
157 2 33 -0.112266 5.300011 5.062254 18.553992
158 2 33 -0.112266 4.603728 5.869516 20.533382
159 2 79 1.088381 6.565655 4.135348 20.654360
160 2 61 -0.614813 7.913042 3.624457 19.719013
161 2 61 -0.614813 5.466120 2.826989 20.813548
162 2 61 -0.614813 7.075846 4.659334 22.209064
163 2 5 0.224162 8.790430 7.580473 13.837628
164 2 33 -0.097154 8.002027 6.781051 14.633345
165 2 5 0.152641 8.809506 6.925817 12.409946
166 2 33 -0.097154 8.211987 8.834669 13.740998
167 2 33 -0.114533 9.494163 5.722715 12.488075
168 2 33 -0.114533 9.505064 7.771475 11.559690
169 2 5 0.169008 7.406252 6.645134 11.772345
170 2 63 -0.058703 6.719682 5.740812 12.643782
171 2 5 0.283965 7.612133 6.092850 10.314265
172 2 33 -0.097241 6.714764 7.845197 11.702297
173 2 33 -0.09168 8.259521 4.869958 10.344254
174 2 33 -0.09168 8.366729 6.968200 9.553810
175 2 5 0.211916 5.502495 5.196433 12.151694
176 2 5 0.001658 4.636906 4.658935 13.313115
177 2 33 -0.094681 5.778464 4.136859 11.300620
178 2 33 -0.094681 4.744903 6.151628 11.487397
179 2 5 0.294487 5.387347 3.644942 14.198728
180 2 63 -0.046447 3.522276 3.980441 12.738273
181 2 33 -0.068202 4.277696 5.732315 14.125837
182 2 33 -0.089747 5.808924 2.559027 13.451818
183 2 33 -0.089747 4.539786 3.190868 15.193772
184 2 33 -0.089747 6.485793 4.232375 14.800763
185 2 5 0.23616 2.260885 4.565708 12.996379
186 2 5 0.049903 1.189532 3.778586 12.229925
187 2 33 -0.095009 2.227862 5.877574 12.546561
188 2 33 -0.095009 1.971012 4.525182 14.351574
189 2 33 -0.119297 1.468486 3.819676 10.874742
190 2 33 -0.119297 -0.047891 4.359588 12.442163
191 2 79 1.089277 1.103510 2.028599 12.755591
192 2 61 -0.616384 2.675860 1.340460 12.829667
193 2 61 -0.616384 0.176794 1.166399 11.595959
194 2 61 -0.616384 0.338091 1.942159 14.290711
195 2 33 -0.083444 18.740182 11.282898 18.064616
196 2 33 -0.09168 6.417128 5.943888 9.636573
197 3 5 0.23943 27.668226 30.385324 15.443684
198 3 63 -0.107446 27.931544 29.154394 16.118493
199 3 5 0.096748 26.234676 30.472932 14.874441
200 3 33 -0.083444 27.874643 31.452873 16.304104
201 3 33 -0.076564 26.018608 29.382232 14.047805
202 3 33 -0.076564 26.230324 31.613164 14.085447
203 3 5 0.239938 29.341708 28.939589 16.237597
204 3 5 0.031579 29.658462 27.793191 17.229411
205 3 33 -0.098346 29.971839 30.092733 16.692919
206 3 33 -0.098346 29.864629 28.590740 14.999168
207 3 5 0.417302 31.197150 27.633806 17.403183
208 3 63 -0.075238 29.124044 26.586862 16.692841
209 3 33 -0.094088 29.091573 28.138365 18.453007
210 3 33 -0.120596 31.796829 27.336881 16.191468
211 3 33 -0.120596 31.498002 26.616215 18.285729
212 3 33 -0.120596 31.760212 28.794849 17.902654
213 3 5 0.258717 28.546962 25.708566 17.647937
214 3 5 0.054096 28.471154 24.300341 17.043347
215 3 33 -0.09756 27.264619 26.136584 17.947499
216 3 33 -0.09756 29.280338 25.629449 18.822790
217 3 33 -0.120109 27.687624 24.327862 15.903650
218 3 33 -0.120109 27.892337 23.438110 17.957652
219 3 79 1.069374 30.123655 23.651946 16.597180
220 3 61 -0.610284 30.792941 24.639025 15.361930
221 3 61 -0.610284 29.905346 22.044623 16.034968
222 3 61 -0.610284 31.128339 23.656687 17.990386
223 3 5 0.244615 25.072813 30.583239 15.917683
224 3 33 -0.110109 24.977754 29.404928 16.638588
225 3 5 0.166751 23.716002 30.897410 15.207104
226 3 33 -0.110109 25.351713 31.617706 16.795206
227 3 33 -0.087619 23.426770 29.870411 14.322693
228 3 33 -0.087619 23.893379 32.060056 14.476094
229 3 5 0.133435 22.483334 31.106972 16.150645
230 3 33 -0.056543 22.200005 29.917831 16.795530
231 3 5 0.043406 21.241366 31.620694 15.340328
232 3 33 -0.056543 22.794460 32.057842 17.108615
233 3 33 -0.026439 20.975966 30.733844 14.308158
234 3 33 -0.026439 21.630272 32.822246 14.774247
235 3 5 -0.042189 19.901540 31.814327 16.155404
236 3 63 -0.05899 19.572824 30.493096 16.609690
237 3 5 0.198119 18.893677 32.698621 15.263023
238 3 33 -0.033517 20.177889 32.574789 17.279682
239 3 33 -0.070849 18.708824 32.102338 14.026249
240 3 33 -0.070849 19.580195 33.878038 15.032145
241 3 5 0.047327 18.264332 29.988254 16.469262
242 3 5 0.014492 18.248736 28.478858 16.803107
243 3 33 -0.023915 17.799222 30.117901 15.173225
244 3 33 -0.023915 17.432949 30.608406 17.385709
245 3 5 0.258874 19.189749 27.653722 15.898969
246 3 63 -0.046319 16.919641 28.010255 16.587181
247 3 33 -0.052305 18.681213 28.333914 18.120307
248 3 33 -0.07104 18.831729 27.783424 14.568665
249 3 33 -0.07104 19.111672 26.316874 16.243007
250 3 33 -0.07104 20.501365 28.057068 16.049988
251 3 5 0.242379 16.328317 27.356841 17.693898
252 3 5 0.030285 14.967595 26.798048 17.261238
253 3 33 -0.097617 16.121676 28.260662 18.724944
254 3 33 -0.097617 17.116969 26.307000 18.142169
255 3 33 -0.112266 14.156640 27.834726 16.833326
256 3 33 -0.112266 14.360139 26.175861 18.337062
257 3 79 1.088381 15.130775 25.586108 15.902017
258 3 61 -0.614813 15.819829 26.357440 14.530308
259 3 61 -0.614813 13.566909 25.008835 15.493118
260 3 61 -0.614813 16.118186 24.277491 16.416313
261 3 5 0.224162 17.491380 33.182504 15.808970
262 3 33 -0.097154 16.568945 32.161426 15.790701
263 3 5 0.152641 16.903164 34.344375 14.930749
264 3 33 -0.097154 17.635397 33.639767 17.107859
265 3 33 -0.114533 16.870852 33.923015 13.610247
266 3 33 -0.114533 17.761546 35.428991 15.023800
267 3 5 0.169008 15.465516 34.829794 15.320592
268 3 63 -0.058703 14.588399 33.707444 15.180676
269 3 5 0.283965 15.080605 36.056564 14.414900
270 3 33 -0.097241 15.492059 35.242354 16.644338
271 3 33 -0.09168 14.997922 35.674082 13.087367
272 3 33 -0.09168 16.020460 37.066197 14.521015
273 3 5 0.211916 13.197798 33.979158 15.292226
274 3 5 0.001658 12.414090 32.687149 15.614035
275 3 33 -0.094681 12.723760 34.475715 14.087277
276 3 33 -0.094681 12.931792 34.881764 16.313097
277 3 5 0.294487 12.685219 31.555711 14.603098
278 3 63 -0.046447 11.024728 32.999703 15.542053
279 3 33 -0.068202 12.818433 32.229128 16.866399
280 3 33 -0.089747 12.338899 31.948877 13.322358
281 3 33 -0.089747 11.928444 30.447957 14.941957
282 3 33 -0.089747 14.019228 31.189212 14.617464
283 3 5 0.23616 10.319263 32.898280 16.763648
284 3 5 0.049903 8.874321 33.361541 16.534866
285 3 33 -0.095009 10.883182 33.723760 17.725417
286 3 33 -0.095009 10.309350 31.587515 17.215332
287 3 33 -0.119297 8.875392 34.672180 16.089613
288 3 33 -0.119297 8.178130 33.303145 17.728907
289 3 79 1.089277 7.999353 32.327815 15.305223
290 3 61 -0.616384 8.974079 32.089775 13.910751
291 3 61 -0.616384 6.563202 33.146614 14.842645
292 3 61 -0.616384 7.601639 30.819271 16.023590
293 3 33 -0.083444 28.511912 30.539917 14.346926
294 3 33 -0.09168 13.877505 36.625581 14.786738
295 4 5 0.23943 34.295080 35.253400 16.204765
296 4 63 -0.107446 34.920140 34.054010 15.745794
297 4 5 0.096748 33.235522 35.801734 15.223212
298 4 33 -0.083444 33.695339 35.035948 17.435870
299 4 33 -0.076564 33.828929 35.978438 13.983744
300 4 33 -0.076564 32.900893 37.053149 15.717827
301 4 5 0.239938 36.152094 33.833195 16.440359
302 4 5 0.031579 36.688653 32.400366 16.200857
303 4 33 -0.098346 35.975820 34.006567 17.808932
304 4 33 -0.098346 37.109394 34.730361 15.984815
305 4 5 0.417302 37.983598 32.158692 17.030237
306 4 63 -0.075238 36.993117 32.270327 14.815530
307 4 33 -0.094088 35.701214 31.514577 16.622801
308 4 33 -0.120596 38.971013 33.057908 16.666293
309 4 33 -0.120596 38.475457 30.884820 16.829697
310 4 33 -0.120596 37.735543 32.298193 18.384319
311 4 5 0.258717 36.673092 31.009406 14.246056
312 4 5 0.054096 37.473504 30.834546 12.948698
313 4 33 -0.09756 35.321695 30.971976 13.946614
314 4 33 -0.09756 36.977871 29.945136 15.082010
315 4 33 -0.120109 37.142566 31.843044 12.061569
316 4 33 -0.120109 37.155918 29.617018 12.373207
317 4 79 1.069374 39.279655 30.886825 13.240800
318 4 61 -0.610284 39.702920 32.444201 13.826922
319 4 61 -0.610284 40.047965 30.577306 11.737096
320 4 61 -0.610284 39.704017 29.672727 14.379360
321 4 5 0.244615 31.924961 34.960193 15.066090
322 4 33 -0.110109 32.215944 33.749682 14.460163
323 4 5 0.166751 30.858372 35.743199 14.233113
324 4 33 -0.110109 31.396171 34.710907 16.321555
325 4 33 -0.087619 31.376981 36.002254 12.974344
326 4 33 -0.087619 30.645737 36.954067 14.870427
327 4 5 0.133435 29.469613 35.038042 14.066501
328 4 33 -0.056543 29.632734 33.889535 13.315149
329 4 5 0.043406 28.428624 36.005912 13.401237
330 4 33 -0.056543 28.985131 34.677155 15.312976
331 4 33 -0.026439 28.940766 36.462657 12.196492
332 4 33 -0.026439 28.323704 37.091413 14.253354
333 4 5 -0.042189 26.996362 35.405113 13.110302
334 4 63 -0.05899 27.241538 34.356666 12.161235
335 4 5 0.198119 25.990412 36.626620 12.810145
336 4 33 -0.033517 26.528591 34.805540 14.268047
337 4 33 -0.070849 26.485532 37.404720 11.776341
338 4 33 -0.070849 26.044996 37.408016 13.951230
339 4 5 0.047327 26.451534 34.237480 11.000018
340 4 5 0.014492 27.081219 33.197626 10.044941
341 4 33 -0.023915 26.377757 35.429980 10.303348
342 4 33 -0.023915 25.200084 33.756890 11.344351
343 4 5 0.258874 28.519690 33.564810 9.620919
344 4 63 -0.046319 26.278225 33.162119 8.867381
345 4 33 -0.052305 27.129526 31.979407 10.720716
346 4 33 -0.07104 28.543914 34.786257 8.971157
347 4 33 -0.07104 29.010575 32.602356 8.758169
348 4 33 -0.07104 29.358880 33.624329 10.715472
349 4 5 0.242379 25.792853 31.881537 8.512471
350 4 5 0.030285 25.070259 31.989489 7.164431
351 4 33 -0.097617 24.884062 31.437783 9.461065
352 4 33 -0.097617 26.826991 30.964739 8.389484
353 4 33 -0.112266 24.018344 32.882247 7.273586
354 4 33 -0.112266 24.565208 30.751357 6.810214
355 4 79 1.088381 26.188372 32.565155 5.837276
356 4 61 -0.614813 26.772705 34.133535 6.224665
357 4 61 -0.614813 25.300723 32.644845 4.370357
358 4 61 -0.614813 27.493793 31.460927 5.668414
359 4 5 0.224162 24.442077 36.404090 12.582599
360 4 33 -0.097154 24.187403 35.919368 11.320059
361 4 5 0.152641 23.641773 37.748109 12.725220
362 4 33 -0.097154 23.963493 35.503299 13.518801
363 4 33 -0.114533 24.200979 38.684653 11.869366
364 4 33 -0.114533 23.791119 38.200014 14.027276
365 4 5 0.169008 22.108460 37.662056 12.415402
366 4 63 -0.058703 21.975623 37.232197 11.056669
367 4 5 0.283965 21.451697 39.060629 12.708754
368 4 33 -0.097241 21.547876 36.718367 13.262993
369 4 33 -0.09168 21.952429 40.022981 11.849325
370 4 33 -0.09168 21.701058 39.463309 14.008605
371 4 5 0.211916 20.665619 37.281022 10.507536
372 4 5 0.001658 20.559955 36.365497 9.267497
373 4 33 -0.094681 20.378783 38.576944 10.105670
374 4 33 -0.094681 19.711468 36.845944 11.417446
375 4 5 0.294487 21.627430 36.678167 8.200543
376 4 63 -0.046447 19.283755 36.593858 8.673895
377 4 33 -0.068202 20.756919 35.048120 9.676660
378 4 33 -0.089747 21.518131 37.987486 7.766321
379 4 33 -0.089747 21.448889 35.839235 7.114739
380 4 33 -0.089747 22.901011 36.473402 8.700711
381 4 5 0.23616 18.401299 35.488857 8.696365
382 4 5 0.049903 17.050680 35.928604 8.115624
383 4 33 -0.095009 18.185219 35.060426 9.997970
384 4 33 -0.095009 18.904598 34.445451 7.934645
385 4 33 -0.119297 16.538313 36.966434 8.874845
386 4 33 -0.119297 16.162730 34.868828 8.163014
387 4 79 1.089277 17.189554 36.488302 6.379643
388 4 61 -0.616384 18.509508 37.572516 6.196590
389 4 61 -0.616384 15.739435 37.307574 5.963845
390 4 61 -0.616384 17.393642 35.118132 5.364304
391 4 33 -0.083444 35.229437 36.275468 16.349462
392 4 33 -0.09168 20.075780 39.029976 12.584631
393 5 5 0.23943 28.839507 33.141828 23.103927
394 5 63 -0.107446 29.358184 34.472358 23.127507
395 5 5 0.096748 27.720906 32.906011 24.143110
396 5 33 -0.083444 28.348166 32.845333 21.841681
397 5 33 -0.076564 28.203137 33.242837 25.397558
398 5 33 -0.076564 27.496954 31.537725 24.125868
399 5 5 0.239938 30.637496 34.523201 22.487458
400 5 5 0.031579 31.077207 35.982906 22.215114
401 5 33 -0.098346 30.599589 33.848329 21.272043
402 5 33 -0.098346 31.591135 33.935029 23.308115
403 5 5 0.417302 32.430798 36.008956 21.446822
404 5 63 -0.075238 31.243156 36.634086 23.470966
405 5 33 -0.094088 30.091006 36.570358 21.427711
406 5 33 -0.120596 33.423099 35.387868 22.185482
407 5 33 -0.120596 32.837634 37.303397 21.194238
408 5 33 -0.120596 32.318469 35.364978 20.227311
409 5 5 0.258717 30.808656 37.985536 23.508795
410 5 5 0.054096 31.473783 38.686300 24.700815
411 5 33 -0.09756 29.434902 38.020218 23.678903
412 5 33 -0.09756 31.137404 38.691909 22.361041
413 5 33 -0.120109 31.111436 38.048222 25.873481
414 5 33 -0.120109 31.043301 39.999903 24.760473
415 5 79 1.069374 33.299758 38.677338 24.574423
416 5 61 -0.610284 33.853223 37.053233 24.638216
417 5 61 -0.610284 33.906855 39.575747 25.905408
418 5 61 -0.610284 33.768422 39.421827 23.099117
419 5 5 0.244615 26.361146 33.637753 23.886102
420 5 33 -0.110109 26.533263 35.005225 24.018586
421 5 5 0.166751 25.261203 33.129470 24.874198
422 5 33 -0.110109 25.941060 33.367628 22.594392
423 5 33 -0.087619 25.671340 33.390919 26.171887
424 5 33 -0.087619 25.169959 31.756547 24.718188
425 5 5 0.133435 23.829580 33.731867 24.671142
426 5 33 -0.056543 23.863965 35.084597 24.952470
427 5 5 0.043406 22.780064 32.992963 25.574216
428 5 33 -0.056543 23.447153 33.572110 23.349442
429 5 33 -0.026439 23.198687 33.050820 26.894718
430 5 33 -0.026439 22.809893 31.666576 25.180224
431 5 5 -0.042189 21.298680 33.540460 25.521989
432 5 63 -0.05899 21.401034 34.879245 26.029198
433 5 5 0.198119 20.330967 32.435829 26.183373
434 5 33 -0.033517 20.912651 33.635819 24.195129
435 5 33 -0.070849 20.764730 32.131855 27.463523
436 5 33 -0.070849 20.531452 31.298845 25.420021
437 5 5 0.047327 20.500351 35.349919 27.005914
438 5 5 0.014492 20.984891 36.714053 27.548434
439 5 33 -0.023915 20.420774 34.492455 28.088167
440 5 33 -0.023915 19.264492 35.568564 26.422383
441 5 5 0.258874 22.393572 36.644823 28.176642
442 5 63 -0.046319 20.073917 37.112041 28.570412
443 5 33 -0.052305 21.035898 37.600938 26.474239
444 5 33 -0.07104 22.417292 35.751316 29.232952
445 5 33 -0.07104 22.752636 37.892223 28.652762
446 5 33 -0.07104 23.333923 36.257812 27.242944
447 5 5 0.242379 19.494216 38.389980 28.390811
448 5 5 0.030285 18.654284 38.723693 29.629422
449 5 33 -0.097617 18.657746 38.381517 27.284965
450 5 33 -0.097617 20.465309 39.368843 28.236244
451 5 33 -0.112266 17.663017 37.770737 29.786658
452 5 33 -0.112266 18.057192 39.960417 29.463558
453 5 79 1.088381 19.669837 38.765020 31.149242
454 5 61 -0.614813 20.365309 37.216326 31.412300
455 5 61 -0.614813 18.653199 39.154998 32.476074
456 5 61 -0.614813 20.897036 39.956418 30.986412
457 5 5 0.224162 18.758948 32.599974 26.204664
458 5 33 -0.097154 18.362842 33.489983 27.176674
459 5 5 0.152641 18.043459 31.236664 26.515591
460 5 33 -0.097154 18.326343 33.054716 24.970563
461 5 33 -0.114533 18.565566 30.725947 27.694100
462 5 33 -0.114533 18.336921 30.354131 25.487540
463 5 5 0.169008 16.485427 31.305503 26.664715
464 5 63 -0.058703 16.204146 32.189625 27.754572
465 5 5 0.283965 15.929557 29.848170 26.866183
466 5 33 -0.097241 15.960818 31.825753 25.491114
467 5 33 -0.09168 16.394469 29.310091 28.053533
468 5 33 -0.09168 16.319810 29.020190 25.828831
469 5 5 0.211916 14.852352 32.238855 28.190772
470 5 5 0.001658 14.585097 33.532234 28.992515
471 5 33 -0.094681 14.593803 31.160565 29.023616
472 5 33 -0.094681 13.967572 32.232802 27.120836
473 5 5 0.294487 15.561695 33.718336 30.170342
474 5 63 -0.046447 13.271662 33.433939 29.538798
475 5 33 -0.068202 14.753903 34.620481 28.138749
476 5 33 -0.089747 15.477297 32.653810 31.050385
477 5 33 -0.089747 15.240296 34.878456 30.852602
478 5 33 -0.089747 16.864911 33.828659 29.719162
479 5 5 0.23616 12.341365 34.379079 29.047351
480 5 5 0.049903 10.965658 34.074023 29.654954
481 5 33 -0.095009 12.227642 34.283554 27.668089
482 5 33 -0.095009 12.718250 35.665661 29.400745
483 5 33 -0.119297 10.579245 32.792792 29.301180
484 5 33 -0.119297 10.034492 34.967675 29.156815
485 5 79 1.089277 10.968280 34.200201 31.479851
486 5 61 -0.616384 12.317451 33.368400 32.142537
487 5 61 -0.616384 9.528033 33.474882 32.068527
488 5 61 -0.616384 11.007541 35.858228 31.926322
489 5 33 -0.083444 29.833011 32.216751 23.413388
490 5 33 -0.09168 14.548251 29.810554 26.874735
491 6 5 0.23943 36.485395 24.627249 18.236115
492 6 63 -0.107446 36.642568 26.035393 18.415892
493 6 5 0.096748 35.328401 24.261002 17.280079
494 6 33 -0.083444 37.660709 24.075992 17.748934
495 6 33 -0.076564 34.163976 24.848109 17.748113
496 6 33 -0.076564 35.188608 22.886271 17.395105
497 6 5 0.239938 37.400701 26.308275 19.598963
498 6 5 0.031579 37.856541 27.787374 19.651242
499 6 33 -0.098346 38.534173 25.503801 19.645724
500 6 33 -0.098346 36.617904 26.061857 20.719390
501 6 5 0.417302 38.746167 28.038507 20.903702
502 6 63 -0.075238 36.692562 28.603810 19.736834
503 6 33 -0.094088 38.603293 28.029417 18.501689
504 6 33 -0.120596 38.044926 27.759648 22.064103
505 6 33 -0.120596 39.162941 29.352793 20.965688
506 6 33 -0.120596 39.879846 27.245909 20.870659
507 6 5 0.258717 36.749043 29.810392 18.990101
508 6 5 0.054096 35.699661 30.784098 19.542432
509 6 33 -0.09756 36.456194 29.542040 17.663615
510 6 33 -0.09756 37.986919 30.432596 19.060123
511 6 33 -0.120109 34.440771 30.222872 19.424938
512 6 33 -0.120109 35.731127 31.957699 18.810246
513 6 79 1.069374 35.993820 31.188468 21.303169
514 6 61 -0.610284 35.820619 29.758781 22.238106
515 6 61 -0.610284 34.821021 32.355783 21.760494
516 6 61 -0.610284 37.573001 31.841321 21.477551
517 6 5 0.244615 35.529299 24.617726 15.769173
518 6 33 -0.110109 35.550020 25.993217 15.611841
519 6 5 0.166751 34.397560 23.986895 14.894085
520 6 33 -0.110109 36.743051 24.105115 15.342571
521 6 33 -0.087619 33.176097 24.489514 15.313568
522 6 33 -0.087619 34.407126 22.622307 15.129440
523 6 5 0.133435 34.525465 24.208387 13.348692
524 6 33 -0.056543 34.384452 25.555056 13.071554
525 6 5 0.043406 33.459716 23.356759 12.572859
526 6 33 -0.056543 35.783403 23.807527 12.929688
527 6 33 -0.026439 32.196200 23.667644 13.051600
528 6 33 -0.026439 33.720936 22.037170 12.898243
529 6 5 -0.042189 33.428109 23.531541 11.002691
530 6 63 -0.05899 33.068254 24.907532 10.809723
531 6 5 0.198119 32.573046 22.317496 10.378937
532 6 33 -0.033517 34.716191 23.375371 10.517792
533 6 33 -0.070849 31.314938 22.278023 10.957677
534 6 33 -0.070849 33.234891 21.176761 10.798843
535 6 5 0.047327 32.063658 25.266599 9.888531
536 6 5 0.014492 31.706889 26.760835 10.061575
537 6 33 -0.023915 30.898826 24.549242 10.092033
538 6 33 -0.023915 32.548547 25.118505 8.600660
539 6 5 0.258874 31.208669 27.098913 11.483299
540 6 63 -0.046319 30.649267 27.052738 9.151115
541 6 33 -0.052305 32.864005 27.500840 9.823803
542 6 33 -0.07104 30.075562 26.367911 11.793805
543 6 33 -0.07104 30.894404 28.443213 11.558911
544 6 33 -0.07104 32.182656 26.834979 12.425380
545 6 5 0.242379 30.900339 28.128516 8.267315
546 6 5 0.030285 29.628320 28.400802 7.455629
547 6 33 -0.097617 31.917247 27.792848 7.386475
548 6 33 -0.097617 31.241114 29.282237 8.958606
549 6 33 -0.112266 29.285600 27.267664 6.738690
550 6 33 -0.112266 29.860067 29.434369 6.565939
551 6 79 1.088381 28.221218 28.859354 8.529268
552 6 61 -0.614813 27.871314 27.559397 9.596513
553 6 61 -0.614813 26.850957 29.154989 7.538761
554 6 61 -0.614813 28.615131 30.277193 9.416131
555 6 5 0.224162 32.422060 22.109894 8.819211
556 6 33 -0.097154 31.510750 22.991277 8.283955
557 6 5 0.152641 31.911931 20.663740 8.479180
558 6 33 -0.097154 33.649647 22.300578 8.207972
559 6 33 -0.114533 30.742178 20.433423 9.186954
560 6 33 -0.114533 32.869957 19.758850 8.909568
561 6 5 0.169008 31.626127 20.382654 6.964669
562 6 63 -0.058703 30.608161 21.299277 6.549787
563 6 5 0.283965 31.229935 18.870191 6.794700
564 6 33 -0.097241 32.791732 20.622165 6.252480
565 6 33 -0.09168 30.043383 18.601117 7.454371
566 6 33 -0.09168 32.211602 18.039520 7.304860
567 6 5 0.211916 30.055187 21.081733 5.258688
568 6 5 0.001658 29.364649 22.362275 4.738672
569 6 33 -0.094681 29.098840 20.079719 5.326159
570 6 33 -0.094681 31.032265 20.741334 4.332901
571 6 5 0.294487 28.307126 22.910738 5.716674
572 6 63 -0.046447 28.691517 22.024466 3.527897
573 6 33 -0.068202 30.334367 23.350373 4.580548
574 6 33 -0.089747 27.321587 21.968437 5.952454
575 6 33 -0.089747 27.716673 24.035814 5.168747
576 6 33 -0.089747 28.886288 23.269059 6.920952
577 6 5 0.23616 29.185832 22.659899 2.365082
578 6 5 0.049903 28.425602 22.115288 1.148424
579 6 33 -0.095009 30.532176 22.377161 2.186646
580 6 33 -0.095009 28.998704 24.031596 2.440254
581 6 33 -0.119297 28.612753 20.746473 1.062704
582 6 33 -0.119297 28.921347 22.700044 -0.003151
583 6 79 1.089277 26.630487 22.454517 1.241498
584 6 61 -0.616384 26.016755 22.046980 2.793449
585 6 61 -0.616384 25.841218 21.487038 0.063372
586 6 61 -0.616384 26.356677 24.116519 0.905774
587 6 33 -0.083444 36.179244 24.004364 19.443123
588 6 33 -0.09168 31.089247 18.511113 5.467762
589 7 5 0.23943 12.277478 31.840895 7.718726
590 7 63 -0.107446 11.729495 33.091937 8.136457
591 7 5 0.096748 11.969892 30.684781 8.696258
592 7 33 -0.083444 11.794823 31.506033 6.462739
593 7 33 -0.076564 12.416744 31.040852 9.958468
594 7 33 -0.076564 12.744980 29.623782 8.253337
595 7 5 0.239938 12.383092 34.174541 7.465885
596 7 5 0.031579 11.611219 35.504296 7.650872
597 7 33 -0.098346 12.478238 33.914946 6.102917
598 7 33 -0.098346 13.658164 34.343397 7.989839
599 7 5 0.417302 12.296274 36.647400 6.846402
600 7 63 -0.075238 11.630200 35.835087 9.036136
601 7 33 -0.094088 10.323845 35.305303 7.160191
602 7 33 -0.120596 13.597099 36.837244 7.279814
603 7 33 -0.120596 11.620158 37.840925 6.998897
604 7 33 -0.120596 12.318835 36.354300 5.494324
605 7 5 0.258717 10.426303 36.398893 9.535528
606 7 5 0.054096 10.731861 37.139239 10.844305
607 7 33 -0.09756 9.519564 35.385310 9.795938