LAMMPS Description

8646  atoms
6868  bonds
8211  angles
9129  dihedrals
408  impropers

90  atom types
840  bond types
4614  angle types
985  dihedral types
38  improper types

-0.5 45.5 xlo xhi
-0.5 45.5 ylo yhi
-0.5 45.5 zlo zhi

Masses

1 12.01
2 12.01
3 12.01
4 12.01
5 12.01
6 12.01
7 12.01
8 12.01
9 12.01
10 12.01
11 12.01
12 12.01
13 12.01
14 12.01
15 12.01
16 12.01
17 12.01
18 12.01
19 12.01
20 1.008
21 1.008
22 1.008
23 1.008
24 1.008
25 1.008
26 1.008
27 1.008
28 1.008
29 1.008
30 1.008
31 1.008
32 1.008
33 19.00
34 35.45
35 79.90
36 126.9
37 14.01
38 14.01
39 14.01
40 14.01
41 14.01
42 14.01
43 14.01
44 14.01
45 14.01
46 14.01
47 14.01
48 14.01
49 14.01
50 14.01
51 14.01
52 14.01
53 14.01
54 14.01
55 14.01
56 14.01
57 14.01
58 14.01
59 14.01
60 14.01
61 16.00
62 16.00
63 16.00
64 16.00
65 30.97
66 30.97
67 30.97
68 30.97
69 30.97
70 30.97
71 30.97
72 30.97
73 30.97
74 30.97
75 30.97
76 32.06
77 32.06
78 32.06
79 32.06
80 32.06
81 32.06
82 32.06
83 32.06
84 6.94
85 39.10
86 22.99
87 35.45
88 19.00
89 79.90
90 126.9

Atoms

1 1 5 -0.17012 36.747588 22.935741 30.430859
2 1 5 -0.080377 37.173873 21.474025 30.438654
3 1 1 0.457661 36.063628 20.604583 29.877206
4 1 61 -0.517308 35.006441 20.518523 30.479579
5 1 37 -0.494922 36.250539 19.963482 28.678527
6 1 5 0.377671 35.272048 19.112928 27.983612
7 1 5 -0.087202 34.948238 17.887027 28.856488
8 1 5 -0.087202 33.986636 19.918443 27.692443
9 1 5 -0.202714 35.919967 18.648774 26.638324
10 1 79 1.146806 34.920165 17.608399 25.499197
11 1 61 -0.692005 33.643534 18.564876 24.861453
12 1 61 -0.692005 35.956628 17.166152 24.201335
13 1 61 -0.692005 34.289284 16.193022 26.238674
14 1 5 0.033234 37.763574 20.973663 31.790640
15 1 5 -0.040801 37.041247 21.124503 33.173701
16 1 1 0.149139 35.688832 20.433905 33.289420
17 1 61 -0.406453 34.730360 21.070328 33.700171
18 1 37 -0.133397 35.573532 19.094455 33.027616
19 1 5 0.36877 34.383095 18.267458 33.295474
20 1 5 -0.082028 34.145746 18.228793 34.819772
21 1 5 -0.082028 33.128826 18.835885 32.588506
22 1 5 0.146913 34.685808 16.824591 32.776138
23 1 79 1.035104 33.371874 15.547974 32.915417
24 1 61 -0.654391 32.891072 15.342298 34.550569
25 1 61 -0.654391 32.003742 15.949540 31.957119
26 1 61 -0.654391 34.013549 14.055552 32.356011
27 1 5 -0.191501 37.008445 22.580841 33.770987
28 1 5 -0.030882 38.405501 23.215544 34.020052
29 1 1 0.063201 39.254068 22.261579 34.852051
30 1 61 -0.428116 38.866292 21.954357 35.970859
31 1 37 -0.148761 40.421817 21.756893 34.349861
32 1 5 0.235116 41.314191 20.818733 35.047411
33 1 5 -0.126052 41.828642 21.464882 36.353575
34 1 5 -0.126052 40.552655 19.512010 35.362801
35 1 5 -0.155508 42.513544 20.513277 34.093258
36 1 79 1.168132 43.785294 19.306771 34.647105
37 1 61 -0.694017 43.073937 17.743683 34.692755
38 1 61 -0.694017 45.012928 19.300630 33.444282
39 1 61 -0.694017 44.475910 19.688879 36.171937
40 1 5 0.009267 38.367666 24.570610 34.794391
41 1 5 0.030543 37.734707 25.858895 34.159397
42 1 5 -0.07009 38.334592 26.040594 32.739802
43 1 1 0.588752 36.217472 25.761795 34.059193
44 1 61 -0.525073 35.552405 25.649440 35.075056
45 1 63 -0.308902 35.610700 25.851342 32.842639
46 1 5 0.066477 34.259305 26.005707 32.580474
47 1 5 -0.00172 33.441334 24.701022 32.608812
48 1 5 0.170208 33.248504 24.116524 34.003262
49 1 63 -0.461077 32.375451 23.006060 33.930824
50 1 5 0.033257 31.704911 22.828465 35.164510
51 1 5 0.017087 31.560722 21.345606 35.466475
52 1 63 -0.203728 30.915613 21.206776 36.680067
53 1 1 0.093716 31.442908 20.652860 37.805250
54 1 61 -0.215755 32.507526 20.052222 37.766227
55 1 5 0.099241 30.653022 20.739359 39.093520
56 1 5 -0.098746 30.102401 22.168501 39.318311
57 1 5 -0.098746 29.419375 19.824500 38.883773
58 1 5 -0.021285 38.168036 27.165174 34.950819
59 1 5 0.071716 37.793941 27.556172 36.442947
60 1 5 -0.106297 38.583653 28.851818 36.741440
61 1 1 0.537843 36.310919 27.924560 36.542357
62 1 61 -0.543701 35.880292 28.828391 35.836420
63 1 63 -0.193282 35.473876 27.284716 37.404616
64 1 5 -0.093861 34.214397 27.737030 37.771635
65 1 5 0.020792 33.106877 26.751605 37.383143
66 1 5 -0.034582 33.227094 25.392143 38.076257
67 1 63 -0.280932 34.364940 24.707237 37.592446
68 1 5 -0.050274 34.786217 23.706374 38.497761
69 1 5 -0.063808 33.900093 22.460602 38.449603
70 1 63 -0.129316 34.450812 21.462189 39.231031
71 1 1 0.241915 34.045730 20.731116 40.317324
72 1 61 -0.431956 34.884548 19.940835 40.726981
73 1 5 0.076778 32.695686 20.819837 41.108568
74 1 5 0.007712 31.433646 20.200162 40.349603
75 1 5 -0.061894 32.828060 19.878135 42.346974
76 1 5 0.056116 38.216077 26.403330 37.429970
77 1 5 0.05545 38.453773 26.531081 38.985794
78 1 5 -0.05119 39.722442 27.354575 39.327219
79 1 1 0.569341 38.663070 25.103902 39.497099
80 1 61 -0.460243 37.759272 24.292035 39.359763
81 1 63 -0.319007 39.848275 24.706531 40.043755
82 1 5 -0.108445 40.117579 23.407976 40.445672
83 1 5 0.012954 39.293971 23.017832 41.681211
84 1 5 0.08119 39.483336 21.529710 42.025581
85 1 63 -0.429479 38.777097 21.155065 43.195063
86 1 5 0.037426 37.371793 21.141039 42.994636
87 1 5 -0.124873 36.743539 22.184844 43.919822
88 1 63 -0.339884 35.368493 22.245696 43.795174
89 1 1 0.702982 34.695979 22.762988 42.729602
90 1 61 -0.572459 35.307139 23.149837 41.744839
91 1 5 0.076161 33.190363 22.961130 42.812276
92 1 5 -0.064226 32.407471 22.282520 41.622898
93 1 5 -0.072611 32.656208 22.495600 44.196542
94 1 5 -0.072611 32.911283 24.483399 42.743178
95 1 5 -0.05119 37.249899 27.132159 39.732232
96 1 26 0.044876 36.471140 23.242620 29.399143
97 1 26 0.044876 37.594052 23.564733 30.754581
98 1 26 0.044876 35.862748 23.095767 31.071063
99 1 26 0.064026 38.027360 21.408542 29.727552
100 1 27 0.2808 37.162554 20.101361 28.215619
101 1 26 0.020319 35.866756 17.292810 29.050298
102 1 26 0.020319 34.187375 17.237956 28.387243
103 1 26 0.020319 34.530311 18.194525 29.825826
104 1 26 0.020319 33.230678 19.290488 27.181607
105 1 26 0.020319 34.218017 20.798258 27.054699
106 1 26 0.020319 33.501940 20.280948 28.619670
107 1 20 0.04237 36.211909 19.548620 26.054460
108 1 20 0.04237 36.855764 18.089738 26.856101
109 1 26 -0.000613 38.001692 19.898941 31.637928
110 1 26 -0.000613 38.752112 21.461434 31.904816
111 1 26 0.111889 37.671484 20.541329 33.878070
112 1 27 0.166048 36.412985 18.618051 32.664506
113 1 26 0.004168 35.017831 17.771907 35.334759
114 1 26 0.004168 33.233759 17.659872 35.079156
115 1 26 0.004168 34.015630 19.242281 35.236166
116 1 26 0.004168 32.235586 18.225650 32.822808
117 1 26 0.004168 33.256327 18.858986 31.492500
118 1 26 0.004168 32.874978 19.858368 32.924166
119 1 20 -0.076599 34.946597 16.877378 31.699926
120 1 20 -0.076599 35.583060 16.426485 33.297626
121 1 26 0.093897 36.392266 23.248859 33.150690
122 1 26 0.093897 36.512397 22.519902 34.765972
123 1 26 0.093901 38.907823 23.379758 33.047205
124 1 27 0.17792 40.690211 22.060692 33.400808
125 1 26 0.041813 42.391445 22.395805 36.128115
126 1 26 0.041813 42.483018 20.775379 36.916019
127 1 26 0.041813 41.003374 21.722492 37.045602
128 1 26 0.041813 41.200229 18.793783 35.902709
129 1 26 0.041813 40.190108 19.040253 34.424301
130 1 26 0.041813 39.678141 19.686095 36.019480
131 1 20 0.02694 42.113740 20.117355 33.134385
132 1 20 0.02694 43.041516 21.461713 33.854179
133 1 26 0.061117 37.893354 24.354958 35.762025
134 1 26 0.061117 39.437614 24.820154 34.978275
135 1 26 0.003416 38.055806 25.208570 32.076585
136 1 26 0.003416 39.444179 26.099216 32.776113
137 1 26 0.003416 37.956357 26.969223 32.259182
138 1 20 0.042187 34.186850 26.388389 31.540385
139 1 20 0.042187 33.817314 26.785121 33.239457
140 1 26 0.040297 33.889903 23.945887 31.931754
141 1 26 0.040297 32.428841 24.948230 32.219855
142 1 20 0.060931 32.821364 24.938020 34.625544
143 1 20 0.060931 34.216745 23.773712 34.416944
144 1 20 0.02895 32.260704 23.261920 36.028316
145 1 20 0.02895 30.701836 23.304103 35.110029
146 1 20 0.126294 30.970134 20.842152 34.672275
147 1 20 0.126294 32.573903 20.902789 35.490118
148 1 26 0.024833 29.461728 22.479153 38.464643
149 1 26 0.024833 30.875182 22.941718 39.406791
150 1 26 0.024833 29.475512 22.203491 40.235128
151 1 26 0.024833 28.814276 20.153240 38.010155
152 1 26 0.024833 28.754359 19.835496 39.774721
153 1 26 0.024833 29.733628 18.772997 38.703528
154 1 26 0.013775 39.281946 27.164453 34.911702
155 1 26 0.013775 37.846245 28.030749 34.326999
156 1 26 0.02378 38.365294 29.637997 35.985902
157 1 26 0.02378 39.679559 28.668430 36.721920
158 1 26 0.02378 38.281417 29.287431 37.713225
159 1 20 0.090463 33.980297 28.718149 37.303567
160 1 20 0.090463 34.199549 27.890869 38.871654
161 1 26 0.032575 33.087263 26.619324 36.281157
162 1 26 0.032575 32.138839 27.203556 37.691461
163 1 20 0.044715 32.317899 24.805095 37.827399
164 1 20 0.044715 33.254348 25.572165 39.176311
165 1 20 0.110408 35.800177 23.393482 38.178052
166 1 20 0.110408 34.888899 24.105875 39.527489
167 1 20 0.146648 32.876808 22.697902 38.730273
168 1 20 0.146648 33.890284 22.108322 37.398100
169 1 26 0.058418 30.638992 20.157234 41.130346
170 1 26 0.058418 31.694503 19.142748 40.114017
171 1 26 0.013285 32.968837 18.819830 42.034250
172 1 26 0.013285 31.922383 19.912340 42.990596
173 1 26 0.013285 33.719045 20.131002 42.955939
174 1 26 -0.017702 37.428554 25.637876 37.300927
175 1 26 -0.017702 39.179389 25.994139 37.053554
176 1 26 -0.000851 40.611841 26.942657 38.803259
177 1 26 -0.000851 39.919683 27.315596 40.420934
178 1 26 -0.000851 39.644065 28.425003 39.087681
179 1 20 0.110657 41.196504 23.322068 40.694991
180 1 20 0.110657 39.906610 22.717943 39.598019
181 1 26 0.056777 38.222329 23.200504 41.479955
182 1 26 0.056777 39.595786 23.654007 42.541079
183 1 20 0.047908 40.562307 21.346178 42.215188
184 1 20 0.047908 39.201488 20.875457 41.168749
185 1 20 0.122756 37.064877 21.321549 41.939647
186 1 20 0.122756 36.982808 20.133871 43.254971
187 1 20 0.127015 36.988489 21.904551 44.966233
188 1 20 0.127015 37.173688 23.192639 43.732344
189 1 26 0.003221 32.540822 22.942759 40.761131
190 1 26 0.003221 31.333483 22.353724 41.901689
191 1 26 0.009344 32.844871 21.436370 44.428961
192 1 26 0.009344 31.561346 22.670216 44.273167
193 1 26 0.009344 33.143610 23.073373 45.012264
194 1 26 0.009344 33.274384 24.914920 41.784838
195 1 26 0.009344 33.427241 25.020242 43.569307
196 1 26 0.009344 31.821705 24.691205 42.820346
197 1 26 -0.000851 36.339933 26.514946 39.581350
198 1 26 -0.000851 37.047611 28.168697 39.393785
199 1 26 -0.000851 37.447869 27.162927 40.825719
200 2 5 -0.17012 9.893246 12.164760 27.752376
201 2 5 -0.080377 9.627840 12.062443 29.248198
202 2 1 0.457661 8.204472 11.596204 29.494047
203 2 61 -0.517308 7.273454 12.311758 29.163756
204 2 37 -0.494922 7.986369 10.358233 30.044172
205 2 5 0.377671 6.677704 9.745200 30.318727
206 2 5 -0.087202 5.920071 10.597411 31.352809
207 2 5 -0.087202 5.861797 9.637380 29.011597
208 2 5 -0.202714 6.937084 8.316228 30.898211
209 2 79 1.146806 5.487853 7.256812 31.294395
210 2 61 -0.692005 4.717266 6.810319 29.825317
211 2 61 -0.692005 6.107836 5.831252 32.027663
212 2 61 -0.692005 4.360956 8.003926 32.352720
213 2 5 0.033234 10.047301 13.315723 30.072405
214 2 5 -0.040801 9.586073 14.777615 29.744521
215 2 1 0.149139 8.082870 15.018739 29.784337
216 2 61 -0.406453 7.543410 15.563004 28.832928
217 2 37 -0.133397 7.365219 14.716091 30.910987
218 2 5 0.36877 5.959155 15.083926 31.156950
219 2 5 -0.082028 5.859033 16.622429 31.222508
220 2 5 -0.082028 5.031007 14.549929 30.039143
221 2 5 0.146913 5.547187 14.473389 32.535622
222 2 79 1.035104 3.821079 14.708968 33.119254
223 2 61 -0.654391 3.439084 16.378439 33.238158
224 2 61 -0.654391 2.696200 13.931604 32.079193
225 2 61 -0.654391 3.686433 14.017698 34.686425
226 2 5 -0.191501 10.251574 15.435116 28.478209
227 2 5 -0.030882 11.800751 15.548585 28.540047
228 2 1 0.063201 12.206690 16.237095 29.837546
229 2 61 -0.428116 11.819166 17.379167 30.042445
230 2 37 -0.148761 12.983546 15.583578 30.754034
231 2 5 0.235116 13.424221 16.134281 32.044610
232 2 5 -0.126052 14.279838 17.398677 31.804911
233 2 5 -0.126052 12.192880 16.480017 32.911326
234 2 5 -0.155508 14.279215 15.036891 32.756563
235 2 79 1.168132 14.927738 15.390216 34.440111
236 2 61 -0.694017 13.604974 15.451750 35.534580
237 2 61 -0.694017 15.919371 14.055293 34.874335
238 2 61 -0.694017 15.842318 16.840387 34.532945
239 2 5 0.009267 12.431929 16.378155 27.377867
240 2 5 0.030543 12.383051 15.874424 25.892135
241 2 5 -0.07009 12.878985 14.404231 25.865569
242 2 1 0.588752 10.976998 15.944978 25.309459
243 2 61 -0.525073 10.419405 17.024840 25.209944
244 2 63 -0.308902 10.372003 14.810890 24.857776
245 2 5 0.066477 9.211570 14.712188 24.107790
246 2 5 -0.00172 7.906471 14.779581 24.922810
247 2 5 0.170208 7.593640 16.161267 25.485298
248 2 63 -0.461077 6.316764 16.143082 26.093457
249 2 5 0.033257 5.743842 17.437036 26.069193
250 2 5 0.017087 4.984624 17.691252 27.361403
251 2 63 -0.203728 4.449858 18.963966 27.311718
252 2 1 0.093716 4.770731 19.997061 28.136737
253 2 61 -0.215755 5.452225 19.811061 29.135072
254 2 5 0.099241 4.212704 21.369930 27.828715
255 2 5 -0.098746 4.372356 21.715995 26.328411
256 2 5 -0.098746 2.688807 21.265016 28.092489
257 2 5 -0.021285 13.414755 16.664852 24.980380
258 2 5 0.071716 13.379904 18.205088 24.598633
259 2 5 -0.106297 14.683410 18.464944 23.808197
260 2 1 0.537843 12.227208 18.489310 23.631442
261 2 61 -0.543701 12.182895 17.875871 22.571997
262 2 63 -0.193282 11.269722 19.414382 23.916036
263 2 5 -0.093861 10.376369 19.942074 22.994603
264 2 5 0.020792 8.918747 19.642332 23.360779
265 2 5 -0.034582 8.483265 20.259596 24.692070
266 2 63 -0.280932 9.155247 19.620211 25.758601
267 2 5 -0.050274 9.165144 20.428550 26.918466
268 2 5 -0.063808 7.818792 20.430303 27.644286
269 2 63 -0.129316 7.934865 21.100933 28.847420
270 2 1 0.241915 7.341628 22.194988 29.421619
271 2 61 -0.431956 7.775564 22.472284 30.531027
272 2 5 0.076778 6.242435 23.138911 28.823839
273 2 5 0.007712 4.777336 22.504496 28.762419
274 2 5 -0.061894 6.048731 24.313468 29.834220
275 2 5 0.056116 13.330241 19.088067 25.902221
276 2 5 0.05545 13.730537 20.610320 26.028380
277 2 5 -0.05119 15.256418 20.838085 25.873311
278 2 1 0.569341 13.329255 21.034084 27.443115
279 2 61 -0.460243 12.151541 20.967505 27.764670
280 2 63 -0.319007 14.257861 21.424049 28.363477
281 2 5 -0.108445 13.957808 21.737739 29.679483
282 2 5 0.012954 13.154348 23.042202 29.779124
283 2 5 0.08119 12.694193 23.300018 31.225065
284 2 63 -0.429479 11.996793 24.526100 31.356122
285 2 5 0.037426 10.718953 24.487815 30.738947
286 2 5 -0.124873 10.698045 25.521820 29.611739
287 2 63 -0.339884 9.486753 25.558408 28.947341
288 2 1 0.702982 9.025063 24.599608 28.097133
289 2 61 -0.572459 9.658592 23.568279 27.930007
290 2 5 0.076161 7.775464 24.862689 27.271140
291 2 5 -0.064226 6.675691 23.743645 27.433288
292 2 5 -0.072611 7.209659 26.278403 27.577490
293 2 5 -0.072611 8.193903 24.889806 25.779786
294 2 5 -0.05119 12.984725 21.514435 25.031326
295 2 26 0.044876 9.694949 11.185320 27.266156
296 2 26 0.044876 10.954628 12.415258 27.586099
297 2 26 0.044876 9.228171 12.908384 27.280030
298 2 26 0.064026 10.300753 11.256004 29.615948
299 2 27 0.2808 8.822491 9.799923 30.277099
300 2 26 0.020319 6.493652 10.659532 32.302270
301 2 26 0.020319 4.913928 10.191819 31.561537
302 2 26 0.020319 5.764939 11.620305 30.980714
303 2 26 0.020319 4.865858 9.190829 29.199880
304 2 26 0.020319 6.403683 9.014668 28.268011
305 2 26 0.020319 5.667827 10.628440 28.557433
306 2 20 0.04237 7.546457 7.740883 30.167805
307 2 20 0.04237 7.543683 8.401626 31.825793
308 2 26 -0.000613 9.771529 13.091878 31.125445
309 2 26 -0.000613 11.155335 13.336036 30.076058
310 2 26 0.111889 9.950328 15.380011 30.603511
311 2 27 0.166048 7.873237 14.239460 31.671403
312 2 26 0.004168 6.479071 17.014396 32.057015
313 2 26 0.004168 4.815033 16.960704 31.357807
314 2 26 0.004168 6.226439 17.093031 30.294596
315 2 26 0.004168 3.983347 14.859430 30.217410
316 2 26 0.004168 5.062385 13.448464 29.977419
317 2 26 0.004168 5.285095 14.954973 29.042169
318 2 20 -0.076599 5.712375 13.377520 32.507101
319 2 20 -0.076599 6.216249 14.871380 33.329006
320 2 26 0.093897 9.944515 14.918100 27.556742
321 2 26 0.093897 9.865867 16.477016 28.404409
322 2 26 0.093901 12.239621 14.532258 28.526012
323 2 27 0.17792 13.277324 14.623544 30.515161
324 2 26 0.041813 15.175096 17.149277 31.196217
325 2 26 0.041813 14.606604 17.852992 32.757165
326 2 26 0.041813 13.715503 18.190982 31.275658
327 2 26 0.041813 12.498960 16.911544 33.884364
328 2 26 0.041813 11.581126 15.570401 33.093352
329 2 26 0.041813 11.544637 17.239396 32.432334
330 2 20 0.02694 13.666024 14.114501 32.852632
331 2 20 0.02694 15.149972 14.778703 32.115809
332 2 26 0.061117 11.994869 17.383943 27.449722
333 2 26 0.061117 13.513149 16.448348 27.636532
334 2 26 0.003416 12.205912 13.743156 26.431073
335 2 26 0.003416 13.898655 14.315421 26.299533
336 2 26 0.003416 12.911473 14.009448 24.826578
337 2 20 0.042187 9.228230 13.704204 23.641772
338 2 20 0.042187 9.217485 15.449552 23.275107
339 2 26 0.040297 7.915641 14.024537 25.735014
340 2 26 0.040297 7.078969 14.520038 24.226089
341 2 20 0.060931 7.628328 16.862262 24.618152
342 2 20 0.060931 8.341428 16.446427 26.250569
343 2 20 0.02895 6.504868 18.248744 25.999068
344 2 20 0.02895 5.054088 17.517941 25.201406
345 2 20 0.126294 4.167449 16.949692 27.485215
346 2 20 0.126294 5.695312 17.579953 28.201473
347 2 26 0.024833 3.865596 20.955214 25.695858
348 2 26 0.024833 5.411865 21.747498 25.980112
349 2 26 0.024833 3.905660 22.699336 26.104799
350 2 26 0.024833 2.220123 20.481111 27.457468
351 2 26 0.024833 2.175268 22.226053 27.871486
352 2 26 0.024833 2.488953 21.006080 29.155462
353 2 26 0.013775 14.405653 16.498200 25.462744
354 2 26 0.013775 13.457632 16.118828 24.009844
355 2 26 0.02378 14.772371 17.773001 22.942233
356 2 26 0.02378 15.579078 18.312167 24.448087
357 2 26 0.02378 14.688455 19.482354 23.371937
358 2 20 0.090463 10.561826 19.545409 21.972474
359 2 20 0.090463 10.524186 21.041999 22.947237
360 2 26 0.032575 8.749532 18.545309 23.373649
361 2 26 0.032575 8.280475 20.078310 22.561437
362 2 20 0.044715 7.390762 20.092354 24.800045
363 2 20 0.044715 8.680258 21.355821 24.639589
364 2 20 0.110408 9.904973 19.981815 27.612231
365 2 20 0.110408 9.520632 21.455503 26.696023
366 2 20 0.146648 7.033893 20.836199 27.010738
367 2 20 0.146648 7.565271 19.373058 27.862959
368 2 26 0.058418 4.114877 23.368769 28.523550
369 2 26 0.058418 4.522514 22.196511 29.802555
370 2 26 0.013285 5.679783 23.942661 30.816057
371 2 26 0.013285 5.309678 25.057610 29.465815
372 2 26 0.013285 7.007584 24.826231 30.049413
373 2 26 -0.017702 12.277575 19.018320 26.233571
374 2 26 -0.017702 13.977454 18.586832 26.655199
375 2 26 -0.000851 15.823956 20.198776 26.583539
376 2 26 -0.000851 15.507758 21.899355 26.090499
377 2 26 -0.000851 15.639742 20.654110 24.859135
378 2 20 0.110657 14.904173 21.857815 30.248336
379 2 20 0.110657 13.392503 20.891769 30.131074
380 2 26 0.056777 12.261358 22.973042 29.130992
381 2 26 0.056777 13.777968 23.887620 29.416426
382 2 20 0.047908 13.592361 23.356738 31.876133
383 2 20 0.047908 12.080659 22.454565 31.612922
384 2 20 0.122756 10.435581 23.483485 30.350611
385 2 20 0.122756 9.948102 24.748698 31.494724
386 2 20 0.127015 10.881223 26.520572 30.061719
387 2 20 0.127015 11.512086 25.328554 28.879748
388 2 26 0.003221 7.013968 22.900648 26.823974
389 2 26 0.003221 5.771885 24.146545 26.926287
390 2 26 0.009344 6.929153 26.443128 28.629043
391 2 26 0.009344 6.315870 26.487372 26.950944
392 2 26 0.009344 7.969406 27.056271 27.344054
393 2 26 0.009344 8.627956 23.915033 25.466926
394 2 26 0.009344 8.961916 25.673014 25.596371
395 2 26 0.009344 7.319561 25.100096 25.125857
396 2 26 -0.000851 11.886474 21.443262 25.174621
397 2 26 -0.000851 13.234063 21.245090 23.984826
398 2 26 -0.000851 13.267553 22.578313 25.186329
399 3 5 -0.17012 31.944160 3.918441 35.840706
400 3 5 -0.080377 31.463730 3.647145 37.259852
401 3 1 0.457661 30.023776 4.100285 37.417947
402 3 61 -0.517308 29.755068 5.286726 37.328183
403 3 37 -0.494922 29.040503 3.163940 37.615967
404 3 5 0.377671 27.600600 3.429312 37.757573
405 3 5 -0.087202 27.359566 4.290161 39.010743
406 3 5 -0.087202 27.072175 4.153584 36.499751
407 3 5 -0.202714 26.878959 2.051104 37.915112
408 3 79 1.146806 25.046109 2.034689 38.056495
409 3 61 -0.692005 24.375698 2.513167 36.548862
410 3 61 -0.692005 24.591107 0.403459 38.350337
411 3 61 -0.692005 24.446432 3.034501 39.317007
412 3 5 0.033234 32.423604 4.146563 38.380208
413 3 5 -0.040801 32.969389 5.612655 38.480506
414 3 1 0.149139 31.913888 6.699340 38.636633
415 3 61 -0.406453 31.941296 7.665449 37.889437
416 3 37 -0.133397 31.007594 6.638616 39.661769
417 3 5 0.36877 30.075386 7.713390 40.047340
418 3 5 -0.082028 30.898043 8.924754 40.534315
419 3 5 -0.082028 29.178989 8.137913 38.858914
420 3 5 0.146913 29.194026 7.173753 41.220031
421 3 79 1.035104 27.882301 8.262609 41.905118
422 3 61 -0.654391 28.551412 9.731851 42.488912
423 3 61 -0.654391 26.674780 8.603763 40.731713
424 3 61 -0.654391 27.146803 7.448537 43.227365
425 3 5 -0.191501 34.064023 6.007168 37.419901
426 3 5 -0.030882 35.351814 5.137181 37.456822
427 3 1 0.063201 35.900237 5.104426 38.878264
428 3 61 -0.428116 36.240547 6.156882 39.400771
429 3 37 -0.148761 36.001370 3.919551 39.553825
430 3 5 0.235116 36.496698 3.762884 40.929747
431 3 5 -0.126052 37.958053 4.258214 41.015331
432 3 5 -0.126052 35.603209 4.567416 41.899972
433 3 5 -0.155508 36.425531 2.242646 41.284671
434 3 79 1.168132 36.913904 1.716820 42.977229
435 3 61 -0.694017 35.747679 2.307441 44.091877
436 3 61 -0.694017 36.849312 -0.000561 42.995528
437 3 61 -0.694017 38.485566 2.238206 43.431217
438 3 5 0.009267 36.506565 5.658253 36.544534
439 3 5 0.030543 36.377237 5.658775 34.980307
440 3 5 -0.07009 35.903654 4.249427 34.535806
441 3 1 0.588752 35.384865 6.704889 34.488053
442 3 61 -0.525073 35.595963 7.885780 34.706799
443 3 63 -0.308902 34.296264 6.320132 33.764793
444 3 5 0.066477 33.421934 7.128426 33.056955
445 3 5 -0.00172 32.312285 7.779077 33.903958
446 3 5 0.170208 32.803770 8.882890 34.833125
447 3 63 -0.461077 31.694762 9.500626 35.456908
448 3 5 0.033257 32.009980 10.835239 35.807038
449 3 5 0.017087 31.377383 11.182546 37.144962
450 3 63 -0.203728 31.713851 12.483910 37.463531
451 3 1 0.093716 32.464967 12.876153 38.527895
452 3 61 -0.215755 32.755900 12.084145 39.413210
453 3 5 0.099241 32.878438 14.328875 38.626301
454 3 5 -0.098746 33.419956 14.850239 37.273120
455 3 5 -0.098746 31.570226 15.112706 38.903857
456 3 5 -0.021285 37.791583 5.847377 34.284214
457 3 5 0.071716 38.729626 7.126557 34.339412
458 3 5 -0.106297 40.028406 6.719072 33.605538
459 3 1 0.537843 38.118628 8.271932 33.527165
460 3 61 -0.543701 37.868314 8.085355 32.342586
461 3 63 -0.193282 37.867009 9.487321 34.086670
462 3 5 -0.093861 37.599602 10.648789 33.375991
463 3 5 0.020792 36.214256 11.220379 33.696447
464 3 5 -0.034582 36.048105 11.636870 35.159978
465 3 63 -0.280932 36.053407 10.490819 35.987264
466 3 5 -0.050274 36.377807 10.822196 37.322835
467 3 5 -0.063808 35.209023 11.469333 38.067575
468 3 63 -0.129316 35.530053 11.621551 39.403433
469 3 1 0.241915 35.627037 12.674960 40.274935
470 3 61 -0.431956 35.980418 12.358160 41.402206
471 3 5 0.076778 35.397568 14.200162 39.996260
472 3 5 0.007712 33.867869 14.624118 39.814454
473 3 5 -0.061894 35.798241 14.968299 41.295260
474 3 5 0.056116 39.030874 7.516585 35.835603
475 3 5 0.05545 40.232499 8.397185 36.359099
476 3 5 -0.05119 41.599846 7.679463 36.219550
477 3 1 0.569341 39.967201 8.626430 37.848777
478 3 61 -0.460243 38.948301 9.215254 38.180393
479 3 63 -0.319007 40.806268 8.139322 38.808017
480 3 5 -0.108445 40.569905 8.247060 40.169204
481 3 5 0.012954 40.691090 9.700312 40.649284
482 3 5 0.08119 40.276420 9.832144 42.125639
483 3 63 -0.429479 40.430941 11.154087 42.610831
484 3 5 0.037426 39.480660 12.047991 42.051234
485 3 5 -0.124873 40.234194 13.111934 41.250975
486 3 63 -0.339884 39.387671 14.033358 40.664147
487 3 1 0.702982 38.572350 13.788966 39.600741
488 3 61 -0.572459 38.487549 12.662005 39.136311
489 3 5 0.076161 37.852189 14.943687 38.921798
490 3 5 -0.064226 36.294044 14.725285 38.809828
491 3 5 -0.072611 38.198928 16.287796 39.622782
492 3 5 -0.072611 38.408879 15.063941 37.481105
493 3 5 -0.05119 40.315699 9.772256 35.673508
494 3 26 0.044876 31.274695 3.411976 35.112458
495 3 26 0.044876 32.957970 3.502848 35.712647
496 3 26 0.044876 31.922967 4.998280 35.612864
497 3 26 0.064026 31.468567 2.539758 37.369705
498 3 27 0.2808 29.340670 2.177449 37.658392
499 3 26 0.020319 27.718674 3.763383 39.920621
500 3 26 0.020319 26.291783 4.544564 39.135311
501 3 26 0.020319 27.894392 5.248024 38.937980
502 3 26 0.020319 25.991089 4.375594 36.593117
503 3 26 0.020319 27.237319 3.528827 35.596017
504 3 26 0.020319 27.568808 5.130395 36.340735
505 3 20 0.04237 27.123865 1.418114 37.034661
506 3 20 0.04237 27.281113 1.527099 38.809178
507 3 26 -0.000613 31.924903 3.894542 39.340850
508 3 26 -0.000613 33.314321 3.487826 38.350980
509 3 26 0.111889 33.495068 5.644033 39.458312
510 3 27 0.166048 31.022014 5.788203 40.244934
511 3 26 0.004168 31.505464 8.647033 41.422233
512 3 26 0.004168 30.251095 9.783391 40.792913
513 3 26 0.004168 31.598108 9.278425 39.758235
514 3 26 0.004168 28.506082 8.966768 39.151079
515 3 26 0.004168 28.560111 7.298657 38.497449
516 3 26 0.004168 29.759968 8.527141 38.002443
517 3 20 -0.076599 28.679993 6.249551 40.887389
518 3 20 -0.076599 29.849666 6.880569 42.068369
519 3 26 0.093897 33.643038 6.020577 36.403395
520 3 26 0.093897 34.385426 7.048742 37.647052
521 3 26 0.093901 35.100028 4.103534 37.150388
522 3 27 0.17792 35.699250 3.070094 39.051653
523 3 26 0.041813 38.605838 3.669672 40.331088
524 3 26 0.041813 38.353229 4.178000 42.043615
525 3 26 0.041813 38.053590 5.327244 40.742609
526 3 26 0.041813 35.965566 4.477567 42.942722
527 3 26 0.041813 34.553561 4.206498 41.847485
528 3 26 0.041813 35.605633 5.650545 41.669467
529 3 20 0.02694 35.379200 1.893321 41.146111
530 3 20 0.02694 37.053155 1.669941 40.568054
531 3 26 0.061117 36.745458 6.669089 36.903610
532 3 26 0.061117 37.369880 4.993091 36.775010
533 3 26 0.003416 34.898924 4.023134 34.922007
534 3 26 0.003416 36.599431 3.459546 34.893467
535 3 26 0.003416 35.840931 4.177058 33.427998
536 3 20 0.042187 32.903300 6.464918 32.332898
537 3 20 0.042187 33.979851 7.881333 32.457821
538 3 26 0.040297 31.758732 7.008464 34.478053
539 3 26 0.040297 31.599410 8.250526 33.191858
540 3 20 0.060931 33.367796 9.598929 34.189927
541 3 20 0.060931 33.458979 8.463024 35.620880
542 3 20 0.02895 33.104427 11.004689 35.935177
543 3 20 0.02895 31.631983 11.521627 35.018780
544 3 20 0.126294 30.272423 11.087639 37.089545
545 3 20 0.126294 31.757865 10.466980 37.897545
546 3 26 0.024833 32.655716 14.731662 36.474625
547 3 26 0.024833 34.312159 14.325153 36.910985
548 3 26 0.024833 33.663366 15.932195 37.343050
549 3 26 0.024833 30.822848 14.954052 38.095353
550 3 26 0.024833 31.762892 16.205600 38.971818
551 3 26 0.024833 31.109590 14.785602 39.861832
552 3 26 0.013775 38.411653 5.004493 34.668120
553 3 26 0.013775 37.637946 5.637817 33.200516
554 3 26 0.02378 39.810278 6.346094 32.580891
555 3 26 0.02378 40.559097 5.907180 34.147958
556 3 26 0.02378 40.696054 7.590680 33.464057
557 3 20 0.090463 37.654783 10.478044 32.278592
558 3 20 0.090463 38.375015 11.403887 33.625974
559 3 26 0.032575 35.428409 10.488670 33.414835
560 3 26 0.032575 36.077848 12.128363 33.069253
561 3 20 0.044715 35.067069 12.148313 35.255821
562 3 20 0.044715 36.861061 12.360496 35.402334
563 3 20 0.110408 36.603194 9.869407 37.842088
564 3 20 0.110408 37.299268 11.437352 37.377395
565 3 20 0.146648 34.915262 12.404262 37.596605
566 3 20 0.146648 34.351055 10.770154 37.997587
567 3 26 0.058418 33.887557 15.738399 39.843940
568 3 26 0.058418 33.337760 14.298658 40.738971
569 3 26 0.013285 35.148520 14.678406 42.150508
570 3 26 0.013285 35.704116 16.068812 41.170036
571 3 26 0.013285 36.832681 14.723248 41.609135
572 3 26 -0.017702 38.107950 8.024703 36.171447
573 3 26 -0.017702 39.142208 6.564711 36.400082
574 3 26 -0.000851 41.572157 6.681495 36.707950
575 3 26 -0.000851 42.397498 8.279571 36.709708
576 3 26 -0.000851 41.936894 7.547807 35.181089
577 3 20 0.110657 41.312374 7.628030 40.716158
578 3 20 0.110657 39.557105 7.842182 40.391641
579 3 26 0.056777 40.032220 10.344318 40.038190
580 3 26 0.056777 41.737400 10.048242 40.510134
581 3 20 0.047908 40.931619 9.174867 42.735977
582 3 20 0.047908 39.234572 9.472089 42.288616
583 3 20 0.122756 38.715255 11.551123 41.413221
584 3 20 0.122756 38.917816 12.534736 42.875708
585 3 20 0.127015 40.908170 13.650823 41.950185
586 3 20 0.127015 40.868031 12.644549 40.466355
587 3 26 0.003221 36.148372 14.025415 37.981999
588 3 26 0.003221 35.886457 15.700160 38.463798
589 3 26 0.009344 37.926833 16.333516 40.688358
590 3 26 0.009344 37.701144 17.137968 39.108482
591 3 26 0.009344 39.295160 16.471134 39.584725
592 3 26 0.009344 38.219683 14.135639 36.898932
593 3 26 0.009344 39.507837 15.234433 37.492308
594 3 26 0.009344 37.931139 15.909798 36.940171
595 3 26 -0.000851 39.382064 10.351623 35.829760
596 3 26 -0.000851 40.500389 9.664980 34.585271
597 3 26 -0.000851 41.148581 10.369967 36.103512
598 4 5 -0.17012 6.319563 6.523546 37.118886
599 4 5 -0.080377 6.077142 5.939325 38.503917
600 4 1 0.457661 4.588599 5.760428 38.740627
601 4 61 -0.517308 3.868026 6.742981 38.797791
602 4 37 -0.494922 4.069905 4.494241 38.843127
603 4 5 0.377671 2.654511 4.146004 39.041077
604 4 5 -0.087202 2.173753 4.705746 40.392061
605 4 5 -0.087202 1.803754 4.723148 37.888239
606 4 5 -0.202714 2.547517 2.586014 39.046027
607 4 79 1.146806 0.883268 1.824057 39.217180
608 4 61 -0.692005 -0.016517 2.146086 37.789582
609 4 61 -0.692005 1.129286 0.126216 39.322503
610 4 61 -0.692005 0.019409 2.366293 40.598432
611 4 5 0.033234 6.831245 6.663380 39.658494