LAMMPS Description

7135  atoms
5899  bonds
7990  angles
9639  dihedrals
408  impropers

90  atom types
840  bond types
4614  angle types
985  dihedral types
38  improper types

-0.5 45.5 xlo xhi
-0.5 45.5 ylo yhi
-0.5 45.5 zlo zhi

Masses

1 12.01
2 12.01
3 12.01
4 12.01
5 12.01
6 12.01
7 12.01
8 12.01
9 12.01
10 12.01
11 12.01
12 12.01
13 12.01
14 12.01
15 12.01
16 12.01
17 12.01
18 12.01
19 12.01
20 1.008
21 1.008
22 1.008
23 1.008
24 1.008
25 1.008
26 1.008
27 1.008
28 1.008
29 1.008
30 1.008
31 1.008
32 1.008
33 19.00
34 35.45
35 79.90
36 126.9
37 14.01
38 14.01
39 14.01
40 14.01
41 14.01
42 14.01
43 14.01
44 14.01
45 14.01
46 14.01
47 14.01
48 14.01
49 14.01
50 14.01
51 14.01
52 14.01
53 14.01
54 14.01
55 14.01
56 14.01
57 14.01
58 14.01
59 14.01
60 14.01
61 16.00
62 16.00
63 16.00
64 16.00
65 30.97
66 30.97
67 30.97
68 30.97
69 30.97
70 30.97
71 30.97
72 30.97
73 30.97
74 30.97
75 30.97
76 32.06
77 32.06
78 32.06
79 32.06
80 32.06
81 32.06
82 32.06
83 32.06
84 6.94
85 39.10
86 22.99
87 35.45
88 19.00
89 79.90
90 126.9

Atoms

1 1 5 -0.035534 24.563582 41.221547 25.774977
2 1 5 0.080268 23.649452 40.067417 25.332158
3 1 1 0.357431 24.252432 38.676560 25.603945
4 1 61 -0.452525 24.362506 37.858941 24.724516
5 1 37 -0.293621 24.555756 38.456181 26.896770
6 1 5 0.217692 25.010596 37.194574 27.538435
7 1 5 -0.070466 23.957705 36.101378 27.329512
8 1 5 -0.070466 26.356938 36.772850 26.941744
9 1 5 -0.085806 25.155337 37.587652 29.025127
10 1 79 1.175038 25.423140 36.335097 30.297519
11 1 61 -0.693141 24.172394 35.598618 30.386354
12 1 61 -0.693141 26.550209 35.531729 29.853817
13 1 61 -0.693141 25.702901 37.152395 31.467067
14 1 5 -0.25086 23.095584 40.168446 23.895388
15 1 5 -0.013546 23.963473 40.600572 22.681529
16 1 1 0.008494 25.296027 39.838371 22.537252
17 1 61 -0.364478 26.248872 40.145092 23.210656
18 1 37 -0.032757 25.318142 38.928590 21.547714
19 1 5 0.076634 26.454391 38.108028 21.057224
20 1 5 -0.05957 27.707057 38.974914 20.894747
21 1 5 -0.05957 26.733248 36.961963 22.033867
22 1 5 0.138327 25.931895 37.562288 19.703732
23 1 79 1.042142 27.076878 37.024837 18.421572
24 1 61 -0.649256 27.662030 38.255293 17.892254
25 1 61 -0.649256 28.037160 36.141075 19.051679
26 1 61 -0.649256 26.190484 36.374848 17.466602
27 1 5 -0.082003 13.586695 44.312141 14.543250
28 1 5 0.075181 14.609788 43.212708 14.155973
29 1 5 -0.02228 13.941091 42.407050 13.003150
30 1 1 0.624516 14.733015 42.359031 15.418546
31 1 61 -0.569019 14.027337 41.430718 15.666480
32 1 63 -0.27917 15.643492 42.814022 16.264447
33 1 5 -0.060441 15.817577 42.123452 17.500121
34 1 5 0.021812 16.954718 42.790957 18.260760
35 1 5 0.144217 17.378525 41.955653 19.470977
36 1 63 -0.426079 18.294080 42.611538 20.296155
37 1 5 0.077251 19.633690 42.670662 19.867576
38 1 5 -0.044356 20.491778 41.935024 20.887678
39 1 63 -0.283929 21.888636 42.041363 20.618984
40 1 1 0.512445 22.534567 43.084506 21.154334
41 1 61 -0.499807 21.942074 44.014230 21.601385
42 1 5 -0.004149 24.053217 42.913148 21.293004
43 1 5 -0.073848 24.240932 42.128684 22.645087
44 1 5 -0.0374 24.642482 44.310963 21.543016
45 1 5 -0.060697 13.397112 40.550651 11.469612
46 1 5 0.05577 14.574503 41.221907 12.193660
47 1 5 0.005656 15.794673 41.612864 11.270937
48 1 1 0.589397 15.191986 40.163009 13.112953
49 1 61 -0.569216 14.866889 39.021262 13.176275
50 1 63 -0.096089 16.227634 40.661132 13.764839
51 1 5 -0.037398 17.098965 39.817326 14.506629
52 1 5 0.074074 18.240469 40.742732 14.876670
53 1 5 0.110278 19.320647 40.202453 15.793215
54 1 63 -0.327066 20.018243 41.337957 16.211701
55 1 5 -0.007573 21.298835 41.137848 16.729166
56 1 5 -0.192984 21.885373 42.515873 16.948898
57 1 63 -0.115217 23.181993 42.293101 17.444857
58 1 1 0.345313 23.805570 43.224736 18.154762
59 1 61 -0.440163 23.345254 44.305113 18.349976
60 1 5 0.012726 25.100573 42.680885 18.729069
61 1 5 0.064299 24.763742 42.114381 20.161841
62 1 5 -0.023662 26.184131 43.769036 18.784303
63 1 5 -0.056392 14.639695 43.382031 9.787197
64 1 5 0.077609 15.679081 42.240765 9.851209
65 1 5 -0.030403 15.317869 41.285241 8.660842
66 1 1 0.698096 17.020656 42.944934 9.511974
67 1 61 -0.579132 17.101218 43.778960 8.668710
68 1 63 -0.374179 18.044159 42.583592 10.268202
69 1 5 -0.047163 19.292394 43.245697 10.064994
70 1 5 0.018089 20.159547 43.020111 11.296700
71 1 5 0.058185 21.568916 43.580248 11.083797
72 1 63 -0.411597 22.270710 43.808118 12.271227
73 1 5 0.049555 22.840523 42.704021 12.916700
74 1 5 -0.057669 23.872368 43.265853 13.876885
75 1 63 -0.286241 24.390174 42.192862 14.653606
76 1 1 0.61176 25.280679 42.528654 15.588849
77 1 61 -0.54085 25.603904 43.668214 15.730290
78 1 5 0.053397 25.891180 41.373233 16.387182
79 1 5 -0.02533 25.584120 41.423678 17.939356
80 1 5 -0.084509 27.420550 41.476458 16.182628
81 1 5 -0.112186 15.479391 39.550305 6.901752
82 1 5 0.109094 15.997031 39.920818 8.318085
83 1 5 -0.112186 15.609383 38.760961 9.247596
84 1 1 0.59397 17.506928 40.030950 8.122198
85 1 61 -0.515937 18.042196 40.970254 7.623851
86 1 63 -0.327783 18.150586 38.921704 8.452043
87 1 5 -0.036208 19.520692 38.779719 8.090591
88 1 5 0.000818 20.447140 39.534013 9.026824
89 1 5 0.005586 21.911588 39.162450 8.823754
90 1 63 -0.361682 22.694936 40.130491 9.464168
91 1 5 -0.034835 23.832235 39.705045 10.164395
92 1 5 -0.010282 23.455285 39.207334 11.555358
93 1 63 -0.409871 24.580933 39.393088 12.386307
94 1 1 0.68009 24.377877 39.318179 13.709790
95 1 61 -0.559241 23.299653 39.074781 14.153092
96 1 5 -0.014243 25.661116 39.536021 14.480871
97 1 5 -0.003062 25.386464 39.979106 15.934547
98 1 5 -0.141213 26.479871 38.229102 14.434317
99 1 26 0.001432 24.068578 42.174358 25.614755
100 1 26 0.001432 25.493622 41.213503 25.225408
101 1 26 0.001432 24.794072 41.160486 26.832467
102 1 26 -0.007862 22.766985 40.102367 25.969829
103 1 27 0.22967 24.361367 39.200522 27.522841
104 1 26 0.017125 23.011933 36.391043 27.775774
105 1 26 0.017125 24.272861 35.183222 27.803751
106 1 26 0.017125 23.811314 35.929390 26.270655
107 1 26 0.017125 26.732712 35.906178 27.464654
108 1 26 0.017125 27.080021 37.575685 27.047752
109 1 26 0.017125 26.247895 36.550794 25.888202
110 1 20 0.002275 25.980585 38.284154 29.126500
111 1 20 0.002275 24.252594 38.092981 29.354904
112 1 26 0.074615 22.670122 39.201958 23.661738
113 1 26 0.074615 22.264940 40.870810 23.920686
114 1 26 0.055136 23.343425 40.353113 21.830109
115 1 27 0.213471 24.428299 38.660046 21.196251
116 1 26 0.025698 27.527782 39.801616 20.219234
117 1 26 0.025698 28.502057 38.375275 20.475813
118 1 26 0.025698 28.017943 39.363567 21.851350
119 1 26 0.025698 27.502232 36.315803 21.629318
120 1 26 0.025698 25.836504 36.376216 22.202935
121 1 26 0.025698 27.054624 37.356444 22.990472
122 1 20 -0.06642 25.281500 36.713631 19.884788
123 1 20 -0.06642 25.342441 38.325561 19.209917
124 1 26 0.018272 13.450729 45.001225 13.715405
125 1 26 0.018272 13.939198 44.881933 15.395821
126 1 26 0.018272 12.621512 43.885243 14.793462
127 1 5 -0.082003 15.927183 43.913735 13.794682
128 1 26 0.005831 13.633890 43.140754 12.269623
129 1 26 0.005831 13.027664 42.011167 13.426972
130 1 20 0.086732 16.036572 41.086221 17.286888
131 1 20 0.086732 14.889100 42.155450 18.054766
132 1 26 0.026864 16.647758 43.774394 18.598907
133 1 26 0.026864 17.797889 42.925585 17.592816
134 1 20 0.032451 17.780650 40.999280 19.140123
135 1 20 0.032451 16.518496 41.743625 20.096838
136 1 20 0.095186 19.739704 42.217977 18.890369
137 1 20 0.095186 19.939160 43.705659 19.806569
138 1 20 0.107105 20.279681 42.317831 21.872486
139 1 20 0.107105 20.277621 40.875026 20.864199
140 1 26 0.091225 23.607036 42.624930 23.369583
141 1 26 0.091225 25.258652 42.300218 22.966795
142 1 26 0.010459 24.267655 44.710091 22.476071
143 1 26 0.010459 24.374044 45.004427 20.760303
144 1 26 0.010459 25.722116 44.248281 21.610907
145 1 26 0.011222 13.718703 39.720109 10.865039
146 1 26 0.011222 12.868870 41.255268 10.840920
147 1 26 0.011222 12.694951 40.161507 12.195552
148 1 26 -0.052527 16.391639 42.286322 11.853560
149 1 26 -0.052527 16.418526 40.736397 11.165175
150 1 20 0.062125 17.404617 38.983221 13.888119
151 1 20 0.062125 16.571013 39.426865 15.366810
152 1 26 -0.047057 17.816006 41.609537 15.363246
153 1 26 -0.047057 18.707723 41.100388 13.965789
154 1 20 0.046979 19.982871 39.511696 15.277563
155 1 20 0.046979 18.901975 39.677064 16.651880
156 1 20 0.057491 21.264770 40.595539 17.671048
157 1 20 0.057491 21.912944 40.574939 16.035951
158 1 20 0.13494 21.930921 43.062908 16.019010
159 1 20 0.13494 21.310124 43.096003 17.650740
160 1 26 -0.020215 24.198915 41.206535 20.012322
161 1 26 -0.020215 25.718570 41.807443 20.571337
162 1 26 0.015628 25.820045 44.678178 19.234338
163 1 26 0.015628 26.530077 44.012182 17.793536
164 1 26 0.015628 27.025730 43.408462 19.367516
165 1 26 0.0116 14.661374 43.853300 8.814790
166 1 26 0.0116 14.853896 44.147261 10.523245
167 1 26 0.0116 13.639724 43.011597 9.964673
168 1 26 0.010726 15.413065 41.904876 7.778305
169 1 26 0.010726 14.261661 41.057241 8.753997
170 1 20 0.098163 19.108729 44.297703 9.908993
171 1 20 0.098163 19.742595 42.849532 9.165089
172 1 26 0.058558 20.199523 41.959719 11.524690
173 1 26 0.058558 19.709119 43.519653 12.147758
174 1 20 0.054677 21.504913 44.549443 10.602654
175 1 20 0.054677 22.135980 42.923548 10.428043
176 1 20 0.108831 22.094618 42.128741 13.455687
177 1 20 0.108831 23.320391 42.047115 12.198924
178 1 20 0.105916 24.674057 43.743472 13.331642
179 1 20 0.105916 23.423226 44.005436 14.521085
180 1 26 0.041158 26.486338 41.076884 18.425674
181 1 26 0.041158 24.848833 40.656443 18.116324
182 1 26 0.026121 27.808168 42.392258 16.609215
183 1 26 0.026121 27.690761 41.466777 15.131093
184 1 26 0.026121 27.895780 40.631201 16.664091
185 1 26 0.028392 15.885949 38.596245 6.581669
186 1 26 0.028392 15.756384 40.303210 6.173794
187 1 26 0.028392 14.399076 39.463185 6.915707
188 1 26 0.028392 15.949119 38.883519 10.265070
189 1 26 0.028392 16.020523 37.830929 8.879893
190 1 26 0.028392 14.531891 38.657779 9.261425
191 1 20 0.08863 19.650921 39.108470 7.067997
192 1 20 0.08863 19.694177 37.713125 8.140270
193 1 26 0.05277 20.163904 39.332411 10.055002
194 1 26 0.05277 20.339158 40.595307 8.858663
195 1 20 0.070173 22.162879 39.144273 7.764747
196 1 20 0.070173 22.110200 38.170627 9.221302
197 1 20 0.099941 24.381112 38.954074 9.603129
198 1 20 0.099941 24.469401 40.571925 10.268055
199 1 20 0.109818 22.624516 39.786951 11.923957
200 1 20 0.109818 23.164415 38.164607 11.563829
201 1 26 -0.016271 26.207186 40.292545 13.930798
202 1 26 0.020277 25.859779 39.266273 16.594295
203 1 26 0.020277 24.324463 39.921423 16.121731
204 1 26 0.054331 27.427083 38.377861 14.936635
205 1 26 0.054331 26.667019 37.920726 13.409716
206 1 26 0.054331 25.974521 37.433607 14.968015
207 1 26 0.018272 16.746339 43.221783 13.676894
208 1 26 0.018272 16.203310 44.618966 14.566873
209 1 26 0.018272 15.804485 44.467093 12.868617
210 2 5 -0.035534 38.327902 28.040787 43.539279
211 2 5 0.080268 37.212412 27.680168 42.544606
212 2 1 0.357431 37.710533 26.845679 41.349850
213 2 61 -0.452525 37.506014 27.194283 40.213779
214 2 37 -0.293621 38.304756 25.690026 41.701042
215 2 5 0.217692 38.767772 24.583421 40.822801
216 2 5 -0.070466 37.584488 24.032744 40.020370
217 2 5 -0.070466 39.866154 25.097527 39.886968
218 2 5 -0.085806 39.324739 23.548035 41.824539
219 2 79 1.175038 39.768114 21.881254 41.290824
220 2 61 -0.693141 38.508294 21.226442 40.976605
221 2 61 -0.693141 40.653034 22.036409 40.148283
222 2 61 -0.693141 40.420687 21.351382 42.477192
223 2 5 -0.25086 36.328041 28.855811 42.078735
224 2 5 -0.013546 36.902823 30.245452 41.688937
225 2 1 0.008494 38.065367 30.201991 40.676974
226 2 61 -0.364478 39.184726 29.944836 41.046258
227 2 37 -0.032757 37.738514 30.582591 39.429702
228 2 5 0.076634 38.618592 30.770160 38.248497
229 2 5 -0.05957 39.875759 31.553640 38.639336
230 2 5 -0.05957 39.009443 29.409436 37.664782
231 2 5 0.138327 37.715523 31.553071 37.261435
232 2 79 1.042142 38.434734 32.555470 35.949297
233 2 61 -0.649256 38.996725 33.723147 36.625537
234 2 61 -0.649256 39.421674 31.733496 35.278090
235 2 61 -0.649256 37.271098 32.888141 35.139711
236 2 5 -0.082003 25.271511 37.297114 43.323413
237 2 5 0.075181 26.038704 37.237437 41.976822
238 2 5 -0.02228 25.017627 37.694747 40.893535
239 2 1 0.624516 26.383684 35.757001 41.811476
240 2 61 -0.569019 25.667415 34.960522 41.288221
241 2 63 -0.27917 27.521873 35.421906 42.397797
242 2 5 -0.060441 27.926590 34.055220 42.348238
243 2 5 0.021812 29.284168 33.937351 43.026702
244 2 5 0.144217 29.906940 32.560222 42.786618
245 2 63 -0.426079 31.066488 32.345211 43.533990
246 2 5 0.077251 32.252794 32.959350 43.089872
247 2 5 -0.044356 33.255928 31.865384 42.750687
248 2 63 -0.283929 34.542747 32.377567 42.409390
249 2 1 0.512445 35.411714 32.559342 43.411301
250 2 61 -0.499807 35.055319 32.553697 44.546308
251 2 5 -0.004149 36.888475 32.606285 42.996733
252 2 5 -0.073848 37.325539 31.095790 42.918439
253 2 5 -0.0374 37.669246 33.199755 44.180716
254 2 5 -0.060697 23.906823 37.962959 38.705375
255 2 5 0.05577 25.294272 37.884612 39.361064
256 2 5 0.005656 26.276840 39.065236 38.995324
257 2 1 0.589397 26.005671 36.672538 38.750786
258 2 61 -0.569216 25.585683 35.987177 37.874902
259 2 63 -0.096089 27.219899 36.544185 39.255584
260 2 5 -0.037398 28.153820 35.633206 38.690439
261 2 5 0.074074 29.444855 35.977219 39.405436
262 2 5 0.110278 30.656508 35.106521 39.136139
263 2 63 -0.327066 31.555633 35.442508 40.150944
264 2 5 -0.007573 32.896007 35.114933 39.941605
265 2 5 -0.192984 33.664373 35.723562 41.095054
266 2 63 -0.115217 35.012280 35.405365 40.852726
267 2 1 0.345313 35.891770 35.379252 41.845989
268 2 61 -0.440163 35.615174 35.684880 42.962815
269 2 5 0.012726 37.223207 34.831925 41.366045
270 2 5 0.064299 37.199812 33.276764 41.627086
271 2 5 -0.023662 38.396636 35.515198 42.085367
272 2 5 -0.056392 24.982864 41.025772 40.066460
273 2 5 0.077609 25.875132 40.565646 38.892130
274 2 5 -0.030403 25.124047 41.029695 37.595595
275 2 1 0.698096 27.155584 41.431051 39.041368
276 2 61 -0.579132 27.110289 42.580332 39.341846
277 2 63 -0.374179 28.291605 40.777262 38.862415
278 2 5 -0.047163 29.512100 41.490811 39.059918
279 2 5 0.018089 30.632484 40.477465 39.254366
280 2 5 0.058185 31.994454 41.174235 39.324749
281 2 63 -0.411597 32.993658 40.400593 39.922661
282 2 5 0.049555 33.585210 39.389514 39.155761
283 2 5 -0.057669 34.880496 39.031845 39.860474
284 2 63 -0.286241 35.458535 37.916829 39.193136
285 2 1 0.61176 36.587193 37.442470 39.723748
286 2 61 -0.54085 37.056836 37.953106 40.694192
287 2 5 0.053397 37.250912 36.282754 38.975695
288 2 5 -0.02533 37.352952 34.943792 39.814052
289 2 5 -0.084509 38.681004 36.760980 38.632755
290 2 5 -0.112186 24.647806 41.666936 35.250896
291 2 5 0.109094 25.543136 40.741324 36.118571
292 2 5 -0.112186 25.279714 39.303323 35.647094
293 2 1 0.59397 26.957438 41.212491 35.789874
294 2 61 -0.515937 27.447820 42.198309 36.242470
295 2 63 -0.327783 27.539759 40.478157 34.854368
296 2 5 -0.036208 28.750604 40.938708 34.262976
297 2 5 0.000818 29.959296 40.681324 35.144234
298 2 5 0.005586 31.276032 40.907193 34.410005
299 2 63 -0.361682 32.295542 40.984741 35.366798
300 2 5 -0.034835 33.519920 40.364710 35.081786
301 2 5 -0.010282 33.454828 38.873129 35.390877
302 2 63 -0.409871 34.767047 38.449958 35.692653
303 2 1 0.68009 34.897815 37.258288 36.293713
304 2 61 -0.559241 33.946651 36.581609 36.529760
305 2 5 -0.014243 36.349922 36.928086 36.560314
306 2 5 -0.003062 36.500686 35.876626 37.681313
307 2 5 -0.141213 36.984228 36.441202 35.240782
308 2 26 0.001432 37.914437 28.576935 44.387891
309 2 26 0.001432 39.082582 28.655616 43.070760
310 2 26 0.001432 38.809896 27.152935 43.932393
311 2 26 -0.007862 36.528626 27.012257 43.067028
312 2 27 0.22967 38.356321 25.504824 42.674097
313 2 26 0.017125 36.819032 23.645326 40.684843
314 2 26 0.017125 37.908037 23.218630 39.388096
315 2 26 0.017125 37.157831 24.817674 39.408782
316 2 26 0.017125 40.265840 24.278303 39.308276
317 2 26 0.017125 40.674953 25.533787 40.465026
318 2 26 0.017125 39.471342 25.858784 39.226846
319 2 20 0.002275 40.219116 23.951277 42.287045
320 2 20 0.002275 38.594556 23.375504 42.609472
321 2 26 0.074615 35.755514 28.493937 41.235545
322 2 26 0.074615 35.611611 29.052658 42.873659
323 2 26 0.055136 36.064931 30.738297 41.213909
324 2 27 0.213471 36.765135 30.597002 39.230236
325 2 26 0.025698 39.622174 32.514274 39.069184
326 2 26 0.025698 40.469642 31.736075 37.755527
327 2 26 0.025698 40.458184 30.992140 39.352280
328 2 26 0.025698 39.576914 29.551843 36.753621
329 2 26 0.025698 38.126558 28.821548 37.439532
330 2 26 0.025698 39.602584 28.852619 38.380413
331 2 20 -0.06642 37.044136 30.862662 36.762848
332 2 20 -0.06642 37.106543 32.259997 37.812157
333 2 26 0.018272 25.006244 38.324169 43.554589
334 2 26 0.018272 25.887264 36.922250 44.133427
335 2 26 0.018272 24.360469 36.709652 43.287128
336 2 5 -0.082003 27.289999 38.115922 42.118331
337 2 26 0.005831 24.616340 38.636253 41.244661
338 2 26 0.005831 24.203531 36.984602 40.953850
339 2 20 0.086732 27.971256 33.746793 41.312790
340 2 20 0.086732 27.177283 33.448481 42.839289
341 2 26 0.026864 29.180640 34.098278 44.093988
342 2 26 0.026864 29.940851 34.710238 42.643787
343 2 20 0.032451 30.106741 32.422556 41.725040
344 2 20 0.032451 29.215060 31.780980 43.087271
345 2 20 0.095186 32.059122 33.574794 42.221070
346 2 20 0.095186 32.642959 33.585465 43.879812
347 2 20 0.107105 33.341965 31.190593 43.586528
348 2 20 0.107105 32.929537 31.313216 41.879718
349 2 26 0.091225 36.952534 30.629022 43.821751
350 2 26 0.091225 38.403886 31.078591 42.992913
351 2 26 0.010459 37.587506 32.550127 45.041931
352 2 26 0.010459 37.288466 34.168927 44.465849
353 2 26 0.010459 38.717742 33.289044 43.922198
354 2 26 0.011222 23.973681 38.107355 37.640758
355 2 26 0.011222 23.316314 38.764466 39.129242
356 2 26 0.011222 23.372868 37.035444 38.866807
357 2 26 -0.052527 27.070712 39.011748 39.713843
358 2 26 -0.052527 26.755303 38.814165 38.059049
359 2 20 0.062125 28.201448 35.784959 37.619732
360 2 20 0.062125 27.821123 34.620204 38.875496
361 2 26 -0.047057 29.253209 35.934046 40.468303
362 2 26 -0.047057 29.702842 37.006490 39.181845
363 2 20 0.046979 31.088458 35.302736 38.158130
364 2 20 0.046979 30.413929 34.044560 39.181083
365 2 20 0.057491 33.042428 34.037555 39.926765
366 2 20 0.057491 33.250680 35.518205 39.000264
367 2 20 0.13494 33.532531 36.795078 41.117044
368 2 20 0.13494 33.351104 35.328130 42.046654
369 2 26 -0.020215 36.520853 32.850330 40.904080
370 2 26 -0.020215 38.188145 32.932634 41.347144
371 2 26 0.015628 38.258396 35.534368 43.154082
372 2 26 0.015628 38.505439 36.534057 41.752939
373 2 26 0.015628 39.314152 34.978164 41.865823
374 2 26 0.0116 24.809150 42.090973 40.008920
375 2 26 0.0116 25.457334 40.825610 41.019370
376 2 26 0.0116 24.026110 40.522708 40.052004
377 2 26 0.010726 25.059743 42.106097 37.691019
378 2 26 0.010726 24.107322 40.660811 37.675792
379 2 20 0.098163 29.409790 42.125075 39.927114
380 2 20 0.098163 29.675006 42.126342 38.200255
381 2 26 0.058558 30.613897 39.754271 38.445259
382 2 26 0.058558 30.468200 39.935576 40.179619
383 2 20 0.054677 31.916176 42.061553 39.942385
384 2 20 0.054677 32.303213 41.490541 38.331045
385 2 20 0.108831 32.941883 38.518768 39.079860
386 2 20 0.108831 33.794445 39.743795 38.151915
387 2 20 0.105916 35.565330 39.867666 39.837651
388 2 20 0.105916 34.691165 38.786773 40.893818
389 2 26 0.041158 38.305784 34.505766 39.547569
390 2 26 0.041158 36.607702 34.284030 39.401826
391 2 26 0.026121 39.260371 36.927638 39.531351
392 2 26 0.026121 38.674322 37.690754 38.072123
393 2 26 0.026121 39.168174 36.004120 38.031142
394 2 26 0.028392 24.854838 41.522058 34.195377
395 2 26 0.028392 24.811736 42.710028 35.492970
396 2 26 0.028392 23.603131 41.432422 35.419775
397 2 26 0.028392 25.876494 38.560359 36.154591
398 2 26 0.028392 25.481726 39.211671 34.588796
399 2 26 0.028392 24.235985 39.061250 35.801552
400 2 20 0.08863 28.653198 41.992180 34.036165
401 2 20 0.08863 28.814709 40.385366 33.335673
402 2 26 0.05277 29.924727 39.662200 35.515999
403 2 26 0.05277 29.927693 41.343094 35.997079
404 2 20 0.070173 31.248353 41.835863 33.842748
405 2 20 0.070173 31.460196 40.101427 33.704293
406 2 20 0.099941 33.824858 40.550309 34.055722
407 2 20 0.099941 34.252433 40.821178 35.732378
408 2 20 0.109818 32.811679 38.717247 36.241793
409 2 20 0.109818 33.064603 38.289981 34.566486
410 2 26 -0.016271 36.817882 37.866935 36.829902
411 2 26 0.020277 37.045332 35.035593 37.277023
412 2 26 0.020277 35.520533 35.513424 37.952595
413 2 26 0.054331 38.037910 36.247951 35.395924
414 2 26 0.054331 36.872200 37.183230 34.455435
415 2 26 0.054331 36.547078 35.503215 34.921245
416 2 26 0.018272 27.973159 38.000731 41.291461
417 2 26 0.018272 27.826656 37.865032 43.023278
418 2 26 0.018272 26.998028 39.159590 42.184413
419 3 5 -0.035534 14.755541 15.001049 34.556259
420 3 5 0.080268 14.126909 14.422951 33.277836
421 3 1 0.357431 14.129139 12.883245 33.242654
422 3 61 -0.452525 14.608800 12.278662 32.316148
423 3 37 -0.293621 13.489956 12.312530 34.280777
424 3 5 0.217692 13.172036 10.876137 34.495178
425 3 5 -0.070466 12.303206 10.362920 33.342336
426 3 5 -0.070466 14.472613 10.072876 34.594176
427 3 5 -0.085806 12.412513 10.880272 35.840103
428 3 79 1.175038 11.555824 9.404607 36.430093
429 3 61 -0.693141 10.420558 9.232206 35.537845
430 3 61 -0.693141 12.520098 8.318519 36.374014
431 3 61 -0.693141 11.182519 9.795504 37.779881
432 3 5 -0.25086 14.647079 15.015796 31.951471
433 3 5 -0.013546 16.151795 15.288954 31.678282
434 3 1 0.008494 17.087159 14.098709 31.971330
435 3 61 -0.364478 17.430599 13.858404 33.102598
436 3 37 -0.032757 17.552981 13.468525 30.878968
437 3 5 0.076634 18.550454 12.372462 30.785911
438 3 5 -0.05957 19.759746 12.675056 31.676479
439 3 5 -0.05957 17.911090 11.045120 31.203565
440 3 5 0.138327 18.913261 12.357976 29.278948
441 3 79 1.042142 20.476530 11.665610 28.712738
442 3 61 -0.649256 21.492847 12.633529 29.121193
443 3 61 -0.649256 20.617765 10.365909 29.338070
444 3 61 -0.649256 20.293844 11.626888 27.268690
445 3 5 -0.082003 14.316934 24.369973 21.586046
446 3 5 0.075181 15.109241 23.049963 21.398223
447 3 5 -0.02228 15.184011 22.822831 19.859373
448 3 1 0.624516 14.229752 21.991197 22.064222
449 3 61 -0.569019 13.362119 21.396790 21.502876
450 3 63 -0.27917 14.461213 21.867019 23.361350
451 3 5 -0.060441 13.669010 20.938898 24.099649
452 3 5 0.021812 14.165803 20.930121 25.538518
453 3 5 0.144217 13.547507 19.776942 26.332155
454 3 63 -0.426079 13.835635 19.834440 27.697080
455 3 5 0.077251 15.119340 19.431283 28.110963
456 3 5 -0.044356 14.965647 18.229364 29.032838
457 3 63 -0.283929 16.199747 17.814289 29.615444
458 3 1 0.512445 16.547500 18.383108 30.776256
459 3 61 -0.499807 16.004938 19.366313 31.168969
460 3 5 -0.004149 17.558598 17.591373 31.616332
461 3 5 -0.073848 16.683997 16.551137 32.411147
462 3 5 -0.0374 18.115578 18.555745 32.676231
463 3 5 -0.060697 15.386226 21.679700 17.680788
464 3 5 0.05577 15.937056 21.665188 19.115172
465 3 5 0.005656 17.511389 21.703046 19.229726
466 3 1 0.589397 15.604043 20.290618 19.704502
467 3 61 -0.569216 15.095567 19.387972 19.121437
468 3 63 -0.096089 16.060775 20.192357 20.940377
469 3 5 -0.037398 16.072531 18.942487 21.617997
470 3 5 0.074074 16.871882 19.238606 22.870869
471 3 5 0.110278 16.988350 18.142141 23.911512
472 3 63 -0.327066 17.467206 18.795500 25.049475
473 3 5 -0.007573 18.054167 18.000226 26.034740
474 3 5 -0.192984 18.624453 18.953884 27.062636
475 3 63 -0.115217 19.232566 18.136068 28.031244
476 3 1 0.345313 19.430625 18.580198 29.265860
477 3 61 -0.440163 19.176572 19.693916 29.600975
478 3 5 0.012726 19.924264 17.460605 30.163339
479 3 5 0.064299 18.650054 16.810840 30.827727
480 3 5 -0.023662 20.912691 17.986855 31.215619
481 3 5 -0.056392 17.942592 24.039128 18.218689
482 3 5 0.077609 18.451869 22.587361 18.359821
483 3 5 -0.030403 18.750317 22.109674 16.895848
484 3 1 0.698096 19.807719 22.742994 19.100229
485 3 61 -0.579132 20.568792 23.620569 18.847610
486 3 63 -0.374179 20.019190 21.860582 20.062849
487 3 5 -0.047163 21.210599 21.989717 20.838499
488 3 5 0.018089 21.029942 21.199203 22.127838
489 3 5 0.058185 22.327592 21.174137 22.940782
490 3 63 -0.411597 22.141323 20.864410 24.291264
491 3 5 0.049555 21.937897 19.521867 24.632654
492 3 5 -0.057669 22.208372 19.422156 26.122357
493 3 63 -0.286241 21.888846 18.102846 26.546687
494 3 1 0.61176 22.025046 17.862717 27.852145
495 3 61 -0.54085 22.401508 18.724333 28.586290
496 3 5 0.053397 21.744651 16.428150 28.308702
497 3 5 -0.02533 20.538672 16.295002 29.325541
498 3 5 -0.084509 23.036228 15.944458 29.008230
499 3 5 -0.112186 19.646342 20.834983 14.971583
500 3 5 0.109094 19.205327 20.682470 16.452623
501 3 5 -0.112186 18.095896 19.620332 16.476138
502 3 1 0.59397 20.478230 20.211110 17.151070
503 3 61 -0.515937 21.380093 20.932672 17.439419
504 3 63 -0.327783 20.529555 18.895620 17.293786
505 3 5 -0.036208 21.753589 18.287245 17.693310
506 3 5 0.000818 21.998689 18.406779 19.186440
507 3 5 0.005586 23.147047 17.524266 19.662202
508 3 63 -0.361682 23.515693 17.950143 20.944230
509 3 5 -0.034835 23.835006 16.975465 21.899642
510 3 5 -0.010282 22.571039 16.411519 22.539124
511 3 63 -0.409871 22.919343 15.962792 23.831173
512 3 1 0.68009 21.911589 15.720125 24.682052
513 3 61 -0.559241 20.777136 15.850345 24.343842
514 3 5 -0.014243 22.421883 15.248289 26.025813
515 3 5 -0.003062 21.380307 15.472446 27.143761
516 3 5 -0.141213 22.804094 13.758698 25.900923
517 3 26 0.001432 14.676373 16.083769 34.556314
518 3 26 0.001432 15.797296 14.726263 34.635658
519 3 26 0.001432 14.243123 14.647936 35.443883
520 3 26 -0.007862 13.069954 14.685511 33.300263
521 3 27 0.22967 13.093980 12.934800 34.943935
522 3 26 0.017125 11.371051 10.916029 33.290394
523 3 26 0.017125 12.055386 9.322536 33.495380
524 3 26 0.017125 12.833184 10.473986 32.404798
525 3 26 0.017125 14.249253 9.044667 34.836369
526 3 26 0.017125 15.103405 10.479197 35.378800
527 3 26 0.017125 15.017184 10.123086 33.660328
528 3 20 0.002275 13.101468 11.151248 36.632782
529 3 20 0.002275 11.629146 11.631612 35.810476
530 3 26 0.074615 14.287162 14.368085 31.163665
531 3 26 0.074615 14.150030 15.973567 31.811675
532 3 26 0.055136 16.181559 15.482888 30.614273
533 3 27 0.213471 17.059412 13.654988 30.036898
534 3 26 0.025698 20.218844 13.618075 31.408453
535 3 26 0.025698 20.500768 11.900086 31.544550
536 3 26 0.025698 19.460335 12.711440 32.711766
537 3 26 0.025698 18.614359 10.236217 31.049925
538 3 26 0.025698 17.018738 10.849395 30.619413
539 3 26 0.025698 17.620656 11.082493 32.246753
540 3 20 -0.06642 18.145140 11.825565 28.728911
541 3 20 -0.06642 18.938253 13.374081 28.903712
542 3 26 0.018272 14.877997 25.202092 21.171996
543 3 26 0.018272 14.150516 24.571854 22.638352
544 3 26 0.018272 13.353322 24.328104 21.089937
545 3 5 -0.082003 16.460451 23.216812 22.108076
546 3 26 0.005831 15.566163 23.745462 19.442879
547 3 26 0.005831 14.154769 22.754094 19.532827
548 3 20 0.086732 13.762987 19.964445 23.640426
549 3 20 0.086732 12.629928 21.233493 24.034479
550 3 26 0.026864 13.916142 21.867581 26.022827
551 3 26 0.026864 15.246198 20.840950 25.540665
552 3 20 0.032451 13.868885 18.823952 25.914609
553 3 20 0.032451 12.465991 19.811855 26.258587
554 3 20 0.095186 15.730262 19.173768 27.255653
555 3 20 0.095186 15.590603 20.245901 28.642529
556 3 20 0.107105 14.256930 18.465615 29.809549
557 3 20 0.107105 14.611290 17.372050 28.476552
558 3 26 0.091225 15.848479 17.109325 32.815269
559 3 26 0.091225 17.272726 16.232201 33.259883
560 3 26 0.010459 17.321570 18.882184 33.334546
561 3 26 0.010459 18.549970 19.436342 32.227409
562 3 26 0.010459 18.865586 18.051753 33.274252
563 3 26 0.011222 15.846409 20.924927 17.066557
564 3 26 0.011222 15.531049 22.644928 17.213732
565 3 26 0.011222 14.323869 21.473160 17.694636
566 3 26 -0.052527 17.719490 21.951723 20.251595
567 3 26 -0.052527 17.870891 20.688466 19.129933
568 3 20 0.062125 16.528976 18.193657 20.983474
569 3 20 0.062125 15.054550 18.638512 21.823959
570 3 26 -0.047057 16.417130 20.090188 23.356961
571 3 26 -0.047057 17.870324 19.547541 22.581692
572 3 20 0.046979 17.673785 17.357945 23.600388
573 3 20 0.046979 16.026205 17.673773 24.120163
574 3 20 0.057491 17.322742 17.345673 26.502692
575 3 20 0.057491 18.841859 17.384294 25.616752
576 3 20 0.13494 19.357754 19.605708 26.611626
577 3 20 0.13494 17.863674 19.567894 27.514580
578 3 26 -0.020215 18.144251 16.255333 30.052392
579 3 26 -0.020215 19.041480 16.072184 31.516761
580 3 26 0.015628 20.534588 18.859101 31.723413
581 3 26 0.015628 21.848778 18.257750 30.756517
582 3 26 0.015628 21.098587 17.212027 31.952861
583 3 26 0.0116 18.670143 24.641064 17.692872
584 3 26 0.0116 17.785690 24.494170 19.189021
585 3 26 0.0116 17.010426 24.075918 17.672452
586 3 26 0.010726 19.504906 22.797234 16.535655
587 3 26 0.010726 17.857951 22.312909 16.313942
588 3 20 0.098163 21.380655 23.034978 21.046578
589 3 20 0.098163 22.040357 21.629130 20.246100
590 3 26 0.058558 20.705248 20.190296 21.893980
591 3 26 0.058558 20.251503 21.661848 22.725097
592 3 20 0.054677 22.777285 22.160388 22.936223
593 3 20 0.054677 23.037830 20.485971 22.488211
594 3 20 0.108831 20.924975 19.202815 24.408996
595 3 20 0.108831 22.622465 18.880690 24.087438
596 3 20 0.105916 23.247594 19.632609 26.331746
597 3 20 0.105916 21.609849 20.139221 26.662071
598 3 26 0.041158 20.834125 15.526938 30.028075
599 3 26 0.041158 19.725899 15.870397 28.760099
600 3 26 0.026121 23.235225 16.524543 29.899755
601 3 26 0.026121 23.904473 16.031528 28.362163
602 3 26 0.026121 22.917660 14.903419 29.280788
603 3 26 0.028392 19.964637 19.880182 14.565361
604 3 26 0.028392 20.464638 21.538476 14.876708
605 3 26 0.028392 18.814185 21.189339 14.374247
606 3 26 0.028392 17.726721 19.395251 17.465452
607 3 26 0.028392 18.452635 18.694440 16.046413