LAMMPS Description

8662  atoms
6868  bonds
8211  angles
9129  dihedrals
408  impropers

90  atom types
840  bond types
4614  angle types
985  dihedral types
38  improper types

-0.5 45.5 xlo xhi
-0.5 45.5 ylo yhi
-0.5 45.5 zlo zhi

Masses

1 12.01
2 12.01
3 12.01
4 12.01
5 12.01
6 12.01
7 12.01
8 12.01
9 12.01
10 12.01
11 12.01
12 12.01
13 12.01
14 12.01
15 12.01
16 12.01
17 12.01
18 12.01
19 12.01
20 1.008
21 1.008
22 1.008
23 1.008
24 1.008
25 1.008
26 1.008
27 1.008
28 1.008
29 1.008
30 1.008
31 1.008
32 1.008
33 19.00
34 35.45
35 79.90
36 126.9
37 14.01
38 14.01
39 14.01
40 14.01
41 14.01
42 14.01
43 14.01
44 14.01
45 14.01
46 14.01
47 14.01
48 14.01
49 14.01
50 14.01
51 14.01
52 14.01
53 14.01
54 14.01
55 14.01
56 14.01
57 14.01
58 14.01
59 14.01
60 14.01
61 16.00
62 16.00
63 16.00
64 16.00
65 30.97
66 30.97
67 30.97
68 30.97
69 30.97
70 30.97
71 30.97
72 30.97
73 30.97
74 30.97
75 30.97
76 32.06
77 32.06
78 32.06
79 32.06
80 32.06
81 32.06
82 32.06
83 32.06
84 6.94
85 39.10
86 22.99
87 35.45
88 19.00
89 79.90
90 126.9

Atoms

1 1 5 -0.17012 11.670990 37.312492 34.407615
2 1 5 -0.080377 12.117677 38.679976 34.906463
3 1 1 0.457661 12.469344 39.573866 33.731266
4 1 61 -0.517308 13.420426 39.287333 33.023279
5 1 37 -0.494922 11.685717 40.666441 33.457429
6 1 5 0.377671 11.867855 41.612591 32.345934
7 1 5 -0.087202 13.221838 42.328578 32.499849
8 1 5 -0.087202 11.809471 40.859858 30.998380
9 1 5 -0.202714 10.705756 42.656315 32.418081
10 1 79 1.146806 10.613863 43.954051 31.119222
11 1 61 -0.692005 10.206396 43.207708 29.626475
12 1 61 -0.692005 9.325334 45.001682 31.562443
13 1 61 -0.692005 12.061616 44.862132 30.953300
14 1 5 0.033234 13.192033 38.644240 36.033608
15 1 5 -0.040801 14.545821 37.860407 35.932455
16 1 1 0.149139 15.471669 38.287863 34.801335
17 1 61 -0.406453 15.924796 37.436788 34.051158
18 1 37 -0.133397 15.864850 39.594991 34.688269
19 1 5 0.36877 16.906726 40.101563 33.776844
20 1 5 -0.082028 18.260257 39.485289 34.188514
21 1 5 -0.082028 16.596186 39.737388 32.304755
22 1 5 0.146913 16.965568 41.654351 33.945948
23 1 79 1.035104 18.140287 42.606952 32.902800
24 1 61 -0.654391 19.751699 42.069372 33.150899
25 1 61 -0.654391 17.740428 42.484219 31.236540
26 1 61 -0.654391 18.051186 44.258703 33.367330
27 1 5 -0.191501 14.436556 36.293465 36.039696
28 1 5 -0.030882 13.813427 35.772026 37.365011
29 1 1 0.063201 14.549910 36.388883 38.547981
30 1 61 -0.428116 15.745710 36.165252 38.676586
31 1 37 -0.148761 13.883191 37.181440 39.441222
32 1 5 0.235116 14.485925 37.843977 40.607760
33 1 5 -0.126052 15.073586 36.780717 41.562938
34 1 5 -0.126052 15.595080 38.813029 40.141236
35 1 5 -0.155508 13.354897 38.644967 41.329804
36 1 79 1.168132 13.800536 39.651515 42.802223
37 1 61 -0.694017 14.776981 40.968816 42.289748
38 1 61 -0.694017 12.330329 40.286621 43.425952
39 1 61 -0.694017 14.606135 38.757228 44.026695
40 1 5 0.009267 13.892817 34.223623 37.547716
41 1 5 0.030543 13.090514 33.247302 36.616780
42 1 5 -0.07009 11.616999 33.731455 36.567051
43 1 1 0.588752 13.658307 33.207661 35.203446
44 1 61 -0.525073 14.799982 32.819000 35.023348
45 1 63 -0.308902 12.872993 33.557893 34.146652
46 1 5 0.066477 13.137079 33.375427 32.799138
47 1 5 -0.00172 14.034115 34.454042 32.163530
48 1 5 0.170208 15.492279 34.390095 32.602829
49 1 63 -0.461077 16.248062 35.328072 31.861485
50 1 5 0.033257 17.596720 34.908566 31.770492
51 1 5 0.017087 18.520881 36.111192 31.872776
52 1 63 -0.203728 19.826746 35.667656 31.793804
53 1 1 0.093716 20.763729 35.766447 32.775234
54 1 61 -0.215755 20.555952 36.444529 33.771594
55 1 5 0.099241 22.094295 35.072214 32.578572
56 1 5 -0.098746 21.900656 33.625049 32.064393
57 1 5 -0.098746 22.801070 35.849323 31.438653
58 1 5 -0.021285 13.015164 31.788428 37.238468
59 1 5 0.071716 14.217639 30.781167 37.480858
60 1 5 -0.106297 13.602049 29.573608 38.225366
61 1 1 0.537843 14.739663 30.242085 36.146006
62 1 61 -0.543701 13.959165 29.665385 35.398386
63 1 63 -0.193282 16.045813 30.374822 35.785612
64 1 5 -0.093861 16.661099 29.674897 34.757455
65 1 5 0.020792 17.201123 30.603186 33.664182
66 1 5 -0.034582 18.286309 31.563131 34.158018
67 1 63 -0.280932 17.721946 32.507984 35.044928
68 1 5 -0.050274 18.709251 33.089753 35.872920
69 1 5 -0.063808 19.546660 34.138818 35.139647
70 1 63 -0.129316 20.380044 34.783544 36.034381
71 1 1 0.241915 21.733577 34.955034 36.165267
72 1 61 -0.431956 22.061351 35.595766 37.154209
73 1 5 0.076778 22.882977 34.400293 35.255488
74 1 5 0.007712 23.030133 35.132171 33.842876
75 1 5 -0.061894 24.232894 34.759841 35.952928
76 1 5 0.056116 15.334749 31.467123 38.354350
77 1 5 0.05545 16.453738 30.740064 39.198539
78 1 5 -0.05119 15.878426 29.995578 40.431013
79 1 1 0.569341 17.383351 31.845747 39.703872
80 1 61 -0.460243 17.973692 32.536591 38.885904
81 1 63 -0.319007 17.519422 32.113109 41.034831
82 1 5 -0.108445 18.282016 33.153862 41.540388
83 1 5 0.012954 19.782512 32.909007 41.326702
84 1 5 0.08119 20.609581 34.136084 41.750015
85 1 63 -0.429479 22.002667 33.917324 41.614826
86 1 5 0.037426 22.409127 33.856002 40.256048
87 1 5 -0.124873 22.978551 32.461925 39.986777
88 1 63 -0.339884 23.403300 32.305114 38.681024
89 1 1 0.702982 22.588486 32.198901 37.594698
90 1 61 -0.572459 21.378972 32.320320 37.718231
91 1 5 0.076161 23.177147 31.818294 36.245035
92 1 5 -0.064226 22.805949 32.833229 35.096049
93 1 5 -0.072611 24.714218 31.612885 36.361034
94 1 5 -0.072611 22.596108 30.437483 35.850426
95 1 5 -0.05119 17.293668 29.756096 38.365411
96 1 26 0.044876 10.812842 37.426908 33.710818
97 1 26 0.044876 11.332028 36.704424 35.263352
98 1 26 0.044876 12.480810 36.806821 33.853629
99 1 26 0.064026 11.223120 39.125638 35.395900
100 1 27 0.2808 10.884862 40.832753 34.086743
101 1 26 0.020319 13.259733 42.889157 33.458309
102 1 26 0.020319 13.416266 43.023995 31.663793
103 1 26 0.020319 14.050818 41.606361 32.494340
104 1 26 0.020319 11.959206 41.553754 30.148179
105 1 26 0.020319 10.828939 40.350519 30.882368
106 1 26 0.020319 12.607920 40.097686 30.910842
107 1 20 0.04237 9.736449 42.113483 32.377728
108 1 20 0.04237 10.741532 43.177140 33.399471
109 1 26 -0.000613 13.421566 39.706265 36.266993
110 1 26 -0.000613 12.684375 38.265716 36.943095
111 1 26 0.111889 15.110821 38.169642 36.837207
112 1 27 0.166048 15.431372 40.268441 35.337925
113 1 26 0.004168 18.521063 39.784712 35.226211
114 1 26 0.004168 19.075547 39.792642 33.507700
115 1 26 0.004168 18.227868 38.382605 34.165900
116 1 26 0.004168 17.400795 40.094510 31.633762
117 1 26 0.004168 15.642250 40.179962 31.969863
118 1 26 0.004168 16.543897 38.645907 32.135898
119 1 20 -0.076599 15.961858 42.076749 33.738156
120 1 20 -0.076599 17.196986 41.900692 35.004844
121 1 26 0.093897 13.898935 35.874516 35.175902
122 1 26 0.093897 15.471888 35.885600 36.000912
123 1 26 0.093901 12.750420 36.078017 37.410935
124 1 27 0.17792 12.875058 37.325310 39.273890
125 1 26 0.041813 14.274646 36.092924 41.913413
126 1 26 0.041813 15.557721 37.247078 42.439343
127 1 26 0.041813 15.860914 36.172078 41.077135
128 1 26 0.041813 16.075596 39.313878 41.004346
129 1 26 0.041813 15.173122 39.584566 39.461929
130 1 26 0.041813 16.408302 38.289023 39.602351
131 1 20 0.02694 12.899567 39.352063 40.602668
132 1 20 0.02694 12.551510 37.943032 41.641736
133 1 26 0.061117 14.961853 33.969450 37.528925
134 1 26 0.061117 13.508937 34.041239 38.577398
135 1 26 0.003416 11.536439 34.725599 36.103339
136 1 26 0.003416 11.176816 33.786817 37.586420
137 1 26 0.003416 10.988710 33.045756 35.957559
138 1 20 0.042187 12.158542 33.447322 32.278774
139 1 20 0.042187 13.525423 32.350539 32.609683
140 1 26 0.040297 13.618246 35.465091 32.349764
141 1 26 0.040297 14.020053 34.277169 31.065322
142 1 20 0.060931 15.827156 33.343806 32.408725
143 1 20 0.060931 15.584234 34.638464 33.678003
144 1 20 0.02895 17.896288 34.223803 32.597720
145 1 20 0.02895 17.755891 34.388821 30.801013
146 1 20 0.126294 18.321275 36.826924 31.047609
147 1 20 0.126294 18.318799 36.614991 32.836379
148 1 26 0.024833 21.332171 33.622578 31.109126
149 1 26 0.024833 21.339243 32.974664 32.746080
150 1 26 0.024833 22.884671 33.147843 31.867526
151 1 26 0.024833 22.194488 35.842607 30.506217
152 1 26 0.024833 23.789341 35.400206 31.198295
153 1 26 0.024833 22.967903 36.910075 31.728259
154 1 26 0.013775 12.536603 31.928917 38.235247
155 1 26 0.013775 12.273909 31.224793 36.626277
156 1 26 0.02378 12.745165 29.147345 37.659111
157 1 26 0.02378 13.223086 29.869433 39.227312
158 1 26 0.02378 14.333012 28.747262 38.316571
159 1 20 0.090463 15.963246 28.952553 34.280271
160 1 20 0.090463 17.499092 29.083014 35.183331
161 1 26 0.032575 16.366339 31.172529 33.204574
162 1 26 0.032575 17.651778 29.960046 32.876974
163 1 20 0.044715 18.693905 32.095563 33.272821
164 1 20 0.044715 19.096484 30.952208 34.620251
165 1 20 0.110408 18.172722 33.616776 36.686931
166 1 20 0.110408 19.340050 32.317348 36.358686
167 1 20 0.146648 20.086736 33.695198 34.306750
168 1 20 0.146648 18.841097 34.887723 34.725906
169 1 26 0.058418 24.003176 34.762644 33.443482
170 1 26 0.058418 23.175768 36.215028 34.061695
171 1 26 0.013285 24.364230 35.861783 36.031029
172 1 26 0.013285 25.106488 34.364360 35.390701
173 1 26 0.013285 24.265827 34.380293 36.993837
174 1 26 -0.017702 15.865776 32.125471 37.642064
175 1 26 -0.017702 14.812613 32.098944 39.106196
176 1 26 -0.000851 15.266861 30.682141 41.055401
177 1 26 -0.000851 16.706826 29.604411 41.061391
178 1 26 -0.000851 15.266954 29.116002 40.182450
179 1 20 0.110657 18.088166 33.249337 42.629848
180 1 20 0.110657 17.964561 34.102610 41.052259
181 1 26 0.056777 19.972131 32.707037 40.256402
182 1 26 0.056777 20.095994 32.014107 41.906414
183 1 20 0.047908 20.407887 34.344424 42.822269
184 1 20 0.047908 20.298122 35.048325 41.191037
185 1 20 0.122756 21.597095 34.090975 39.531358
186 1 20 0.122756 23.198628 34.617841 40.083536
187 1 20 0.127015 23.850194 32.313916 40.658992
188 1 20 0.127015 22.231639 31.674226 40.226524
189 1 26 0.003221 21.774045 32.603619 34.815347
190 1 26 0.003221 23.434314 32.535112 34.228565
191 1 26 0.009344 25.270949 32.497500 36.706123
192 1 26 0.009344 25.142964 31.301707 35.384085
193 1 26 0.009344 24.941682 30.809581 37.095709
194 1 26 0.009344 21.488982 30.480057 35.755951
195 1 26 0.009344 22.837715 29.670140 36.618354
196 1 26 0.009344 23.009295 30.096622 34.876049
197 1 26 -0.000851 17.794029 30.275585 37.521891
198 1 26 -0.000851 16.665495 28.933977 37.966166
199 1 26 -0.000851 18.092417 29.301960 38.991202
200 2 5 -0.17012 38.446638 8.924263 17.610191
201 2 5 -0.080377 37.636317 10.083699 17.046737
202 2 1 0.457661 38.052604 11.382481 17.712821
203 2 61 -0.517308 37.843651 11.539331 18.904308
204 2 37 -0.494922 38.696840 12.342530 16.973872
205 2 5 0.377671 39.191469 13.636515 17.468584
206 2 5 -0.087202 38.005048 14.481593 17.966423
207 2 5 -0.087202 40.205890 13.410754 18.611344
208 2 5 -0.202714 39.894230 14.361883 16.274847
209 2 79 1.146806 40.677898 15.995952 16.583520
210 2 61 -0.692005 42.046982 15.764966 17.595254
211 2 61 -0.692005 41.229459 16.571262 15.060667
212 2 61 -0.692005 39.611794 17.147152 17.280864
213 2 5 0.033234 36.097772 9.844756 17.004799
214 2 5 -0.040801 35.243271 9.402549 18.242396
215 2 1 0.149139 35.254369 10.360013 19.426661
216 2 61 -0.406453 35.505078 9.924354 20.540109
217 2 37 -0.133397 34.894078 11.670579 19.257642
218 2 5 0.36877 34.665345 12.643837 20.340817
219 2 5 -0.082028 33.454473 12.174340 21.174287
220 2 5 -0.082028 35.907061 12.773831 21.255883
221 2 5 0.146913 34.340747 14.020605 19.675718
222 2 79 1.035104 34.051499 15.473725 20.762156
223 2 61 -0.654391 32.748189 15.180343 21.840351
224 2 61 -0.654391 35.461399 15.878062 21.656620
225 2 61 -0.654391 33.631240 16.810601 19.768097
226 2 5 -0.191501 35.424610 7.906174 18.697066
227 2 5 -0.030882 35.070549 6.847904 17.614775
228 2 1 0.063201 33.675275 7.128174 17.069801
229 2 61 -0.428116 32.725615 7.091045 17.840032
230 2 37 -0.148761 33.495399 7.421404 15.746093
231 2 5 0.235116 32.205441 7.725528 15.108465
232 2 5 -0.126052 31.254270 6.516749 15.257998
233 2 5 -0.126052 31.582770 8.978388 15.763870
234 2 5 -0.155508 32.482843 8.004006 13.595965
235 2 79 1.168132 31.070415 8.487947 12.523305
236 2 61 -0.694017 30.538774 10.053132 12.991181
237 2 61 -0.694017 31.682972 8.588207 10.920611
238 2 61 -0.694017 29.761117 7.378172 12.570313
239 2 5 0.009267 35.059801 5.375610 18.133879
240 2 5 0.030543 36.376949 4.664458 18.606019
241 2 5 -0.07009 37.452684 4.863355 17.505402
242 2 1 0.588752 36.891392 5.228668 19.924536
243 2 61 -0.525073 36.203614 5.139344 20.927481
244 2 63 -0.308902 38.134308 5.783222 19.986371
245 2 5 0.066477 38.846740 6.138760 21.119888
246 2 5 -0.00172 38.481398 7.514052 21.709106
247 2 5 0.170208 37.114279 7.560713 22.381506
248 2 63 -0.461077 36.939056 8.818958 23.003371
249 2 5 0.033257 36.041947 8.706821 24.092300
250 2 5 0.017087 35.156149 9.940234 24.162292
251 2 63 -0.203728 34.285551 9.794137 25.224817
252 2 1 0.093716 32.930615 9.705652 25.139849
253 2 61 -0.215755 32.353924 9.939338 24.086986
254 2 5 0.099241 32.146618 9.375311 26.391753
255 2 5 -0.098746 32.787572 8.193330 27.158735
256 2 5 -0.098746 32.288305 10.617839 27.307666
257 2 5 -0.021285 36.181922 3.091692 18.700137
258 2 5 0.071716 35.237672 2.295935 19.697351
259 2 5 -0.106297 35.335949 0.814055 19.266288
260 2 1 0.537843 35.788826 2.365595 21.124349
261 2 61 -0.543701 36.925265 1.960581 21.336874
262 2 63 -0.193282 35.040836 2.848154 22.154484
263 2 5 -0.093861 35.337858 2.678451 23.499310
264 2 5 0.020792 35.556288 4.013542 24.219317
265 2 5 -0.034582 34.318913 4.914575 24.225641
266 2 63 -0.280932 34.050498 5.368189 22.914135
267 2 5 -0.050274 32.706705 5.786423 22.779608
268 2 5 -0.063808 32.453350 7.158418 23.406442
269 2 63 -0.129316 31.173122 7.583394 23.104514
270 2 1 0.241915 30.061589 7.936496 23.824519
271 2 61 -0.431956 29.095625 8.234191 23.135846
272 2 5 0.076778 29.867523 7.953745 25.379702
273 2 5 0.007712 30.610164 9.151054 26.133165
274 2 5 -0.061894 28.364438 8.278804 25.649971
275 2 5 0.056116 33.755981 2.816970 19.576632
276 2 5 0.05545 32.446274 2.051071 20.014208
277 2 5 -0.05119 32.142218 0.829303 19.109184
278 2 1 0.569341 31.301111 3.054083 19.857216
279 2 61 -0.460243 31.326401 4.082879 20.517351
280 2 63 -0.319007 30.292786 2.853853 18.960201
281 2 5 -0.108445 29.278749 3.767316 18.720156
282 2 5 0.012954 28.330629 3.886029 19.921854
283 2 5 0.08119 27.302590 5.011166 19.707016
284 2 63 -0.429479 26.379714 5.106927 20.777506
285 2 5 0.037426 26.980499 5.603133 21.964133
286 2 5 -0.124873 26.886688 4.519748 23.040088
287 2 63 -0.339884 27.449305 4.912802 24.239656
288 2 1 0.702982 28.783402 5.053347 24.475749
289 2 61 -0.572459 29.588075 4.905110 23.568305
290 2 5 0.076161 29.277498 5.285677 25.895210
291 2 5 -0.064226 30.200824 6.557204 26.032104
292 2 5 -0.072611 28.080397 5.330711 26.886751
293 2 5 -0.072611 30.120413 4.053182 26.308018
294 2 5 -0.05119 32.478562 1.591780 21.482468
295 2 26 0.044876 39.531944 9.122102 17.476003
296 2 26 0.044876 38.200481 8.003060 17.055468
297 2 26 0.044876 38.265029 8.800241 18.691878
298 2 26 0.064026 37.930060 10.160271 15.976107
299 2 27 0.2808 38.859088 12.129905 15.977112
300 2 26 0.020319 37.283486 14.664653 17.141700
301 2 26 0.020319 38.336176 15.450238 18.381729
302 2 26 0.020319 37.470987 13.968421 18.778991
303 2 26 0.020319 40.579748 14.375011 19.007817
304 2 26 0.020319 41.067079 12.808786 18.250346
305 2 26 0.020319 39.753000 12.884404 19.473861
306 2 20 0.04237 40.700812 13.704442 15.883635
307 2 20 0.04237 39.163451 14.499958 15.448673
308 2 26 -0.000613 35.657348 10.778634 16.593765
309 2 26 -0.000613 35.916575 9.085225 16.218386
310 2 26 0.111889 34.192583 9.467940 17.888554
311 2 27 0.166048 34.714434 11.982132 18.291126
312 2 26 0.004168 32.543355 12.129415 20.539990
313 2 26 0.004168 33.263824 12.842716 22.034286
314 2 26 0.004168 33.613694 11.163907 21.587986
315 2 26 0.004168 35.712449 13.482535 22.083548
316 2 26 0.004168 36.789080 13.128095 20.695030
317 2 26 0.004168 36.176330 11.821781 21.749515
318 2 20 -0.076599 35.178135 14.302557 19.006154
319 2 20 -0.076599 33.443285 13.914194 19.028619
320 2 26 0.093897 36.439881 7.730456 19.083123
321 2 26 0.093897 34.724782 7.730304 19.545053
322 2 26 0.093901 35.797353 6.922754 16.782982
323 2 27 0.17792 34.339751 7.432494 15.152817
324 2 26 0.041813 31.692153 5.618594 14.772435
325 2 26 0.041813 30.265282 6.721998 14.811074
326 2 26 0.041813 31.055634 6.270068 16.319140
327 2 26 0.041813 30.601485 9.219357 15.310311
328 2 26 0.041813 32.260544 9.851443 15.649086
329 2 26 0.041813 31.390670 8.832803 16.844708
330 2 20 0.02694 33.224009 8.828810 13.515930
331 2 20 0.02694 32.951000 7.105680 13.138489
332 2 26 0.061117 34.304966 5.339840 18.931838
333 2 26 0.061117 34.685889 4.775866 17.272850
334 2 26 0.003416 37.710102 5.925692 17.382856
335 2 26 0.003416 37.101524 4.475524 16.524477
336 2 26 0.003416 38.396704 4.336656 17.765834
337 2 20 0.042187 39.909817 6.213726 20.807268
338 2 20 0.042187 38.794679 5.333869 21.885748
339 2 26 0.040297 38.557560 8.302453 20.932915
340 2 26 0.040297 39.235592 7.736978 22.495895
341 2 20 0.060931 37.107376 6.728258 23.124144
342 2 20 0.060931 36.309562 7.425498 21.632981
343 2 20 0.02895 35.348143 7.839343 23.997078
344 2 20 0.02895 36.619788 8.600363 25.035765
345 2 20 0.126294 35.770884 10.853284 24.308767
346 2 20 0.126294 34.615832 10.026455 23.201144
347 2 26 0.024833 33.840731 8.426869 27.427122
348 2 26 0.024833 32.826260 7.254989 26.592252
349 2 26 0.024833 32.237747 8.000445 28.104914
350 2 26 0.024833 33.355195 10.832609 27.537976
351 2 26 0.024833 31.760942 10.466869 28.274750
352 2 26 0.024833 31.857556 11.519490 26.819422
353 2 26 0.013775 35.864920 2.783157 17.677082
354 2 26 0.013775 37.198416 2.657857 18.843131
355 2 26 0.02378 36.393146 0.469489 19.252039
356 2 26 0.02378 34.924542 0.664140 18.244872
357 2 26 0.02378 34.822326 0.153586 19.991164
358 2 20 0.090463 36.250321 2.058941 23.641094
359 2 20 0.090463 34.498313 2.134221 23.981915
360 2 26 0.032575 36.418157 4.549560 23.769735
361 2 26 0.032575 35.810594 3.781473 25.276619
362 2 20 0.044715 34.541714 5.788988 24.872907
363 2 20 0.044715 33.478146 4.335051 24.673447
364 2 20 0.110408 32.511234 5.887048 21.693378
365 2 20 0.110408 32.001404 5.018242 23.157674
366 2 20 0.146648 32.649548 7.141688 24.475753
367 2 20 0.146648 33.169295 7.866222 22.941368
368 2 26 0.058418 30.190359 9.126622 27.165660
369 2 26 0.058418 30.239464 10.094218 25.669813
370 2 26 0.013285 28.095118 9.286637 25.263496
371 2 26 0.013285 28.128829 8.270278 26.736289
372 2 26 0.013285 27.694671 7.568506 25.125068
373 2 26 -0.017702 33.759205 3.768002 20.140806
374 2 26 -0.017702 33.579390 3.038362 18.501040
375 2 26 -0.000851 32.110240 1.130003 18.039699
376 2 26 -0.000851 31.153020 0.395458 19.373569
377 2 26 -0.000851 32.856776 0.000091 19.214781
378 2 20 0.110657 28.693803 3.435580 17.836184
379 2 20 0.110657 29.733380 4.754260 18.478450
380 2 26 0.056777 28.917692 4.112442 20.830911
381 2 26 0.056777 27.812668 2.915479 20.079756
382 2 20 0.047908 26.722523 4.787754 18.786460
383 2 20 0.047908 27.803479 5.990679 19.530064
384 2 20 0.122756 28.036769 5.929774 21.832292
385 2 20 0.122756 26.424165 6.504748 22.297381
386 2 20 0.127015 25.811226 4.302153 23.212060
387 2 20 0.127015 27.369819 3.578248 22.699518
388 2 26 0.003221 31.178356 6.261107 25.640828
389 2 26 0.003221 30.338323 6.702085 27.125881
390 2 26 0.009344 27.342320 6.120679 26.679932
391 2 26 0.009344 28.439969 5.466592 27.929502
392 2 26 0.009344 27.514188 4.374178 26.851578
393 2 26 0.009344 31.001359 3.927830 25.641170
394 2 26 0.009344 29.517831 3.120456 26.246214
395 2 26 0.009344 30.493094 4.158116 27.350332
396 2 26 -0.000851 32.606300 2.456162 22.166779
397 2 26 -0.000851 33.298675 0.865567 21.655405
398 2 26 -0.000851 31.521304 1.096430 21.754751
399 3 5 -0.17012 39.834603 36.089660 10.021412
400 3 5 -0.080377 40.603977 37.396174 10.160974
401 3 1 0.457661 40.442595 37.948296 11.565579
402 3 61 -0.517308 39.341417 38.311214 11.944528
403 3 37 -0.494922 41.529335 37.990057 12.402257
404 3 5 0.377671 41.538963 38.463821 13.794826
405 3 5 -0.087202 41.158647 39.955015 13.830841
406 3 5 -0.087202 40.545190 37.636443 14.639680
407 3 5 -0.202714 42.988671 38.273584 14.349079
408 3 79 1.146806 43.321108 38.721661 16.100738
409 3 61 -0.692005 42.501046 37.605561 17.117187
410 3 61 -0.692005 45.011088 38.525565 16.345265
411 3 61 -0.692005 42.866101 40.329500 16.495647
412 3 5 0.033234 40.342486 38.431549 9.027133
413 3 5 -0.040801 38.917047 38.920849 8.595768
414 3 1 0.149139 38.103410 39.616320 9.679124
415 3 61 -0.406453 36.959499 39.244770 9.893222
416 3 37 -0.133397 38.615540 40.704028 10.335305
417 3 5 0.36877 37.866396 41.586076 11.248316
418 3 5 -0.082028 36.759518 42.298800 10.443234
419 3 5 -0.082028 37.230314 40.786991 12.411487
420 3 5 0.146913 38.870233 42.645000 11.808852
421 3 79 1.035104 38.257942 43.875743 13.027844
422 3 61 -0.654391 36.962222 44.791736 12.372666
423 3 61 -0.654391 37.751090 43.117334 14.483623
424 3 61 -0.654391 39.544261 44.955144 13.391551
425 3 5 -0.191501 38.052629 37.879311 7.791575
426 3 5 -0.030882 38.688678 37.394362 6.458565
427 3 1 0.063201 39.081791 38.601963 5.616247
428 3 61 -0.428116 38.206912 39.379112 5.259716
429 3 37 -0.148761 40.389438 38.811089 5.274392
430 3 5 0.235116 40.892492 39.944288 4.483284
431 3 5 -0.126052 40.236937 39.932554 3.083876
432 3 5 -0.126052 40.573764 41.269665 5.210414
433 3 5 -0.155508 42.440274 39.774405 4.350356
434 3 79 1.168132 43.389627 41.077755 3.467317
435 3 61 -0.694017 43.357313 42.512916 4.411045
436 3 61 -0.694017 45.016239 40.529011 3.384138
437 3 61 -0.694017 42.808284 41.396215 1.883430
438 3 5 0.009267 37.742901 36.521992 5.574420
439 3 5 0.030543 37.273033 35.097642 6.037007
440 3 5 -0.07009 38.526962 34.296220 6.476901
441 3 1 0.588752 36.285521 35.168450 7.195143
442 3 61 -0.525073 35.214491 35.730455 7.040352
443 3 63 -0.308902 36.582644 34.561684 8.378251
444 3 5 0.066477 35.733341 34.332325 9.448254
445 3 5 -0.00172 35.552677 35.530054 10.399510
446 3 5 0.170208 34.734140 36.674100 9.812594
447 3 63 -0.461077 34.514532 37.654121 10.808551
448 3 5 0.033257 33.324818 38.371005 10.536885
449 3 5 0.017087 33.511087 39.837020 10.893177
450 3 63 -0.203728 32.339545 40.509787 10.604875
451 3 1 0.093716 32.192197 41.494109 9.677351
452 3 61 -0.215755 33.168515 41.995891 9.138167
453 3 5 0.099241 30.798410 42.000467 9.374036
454 3 5 -0.098746 29.805930 40.828254 9.181523
455 3 5 -0.098746 30.344470 42.751033 10.652095
456 3 5 -0.021285 36.668073 34.267878 4.826220
457 3 5 0.071716 35.345512 34.583566 4.007413
458 3 5 -0.106297 35.305216 33.538908 2.867892
459 3 1 0.537843 34.108135 34.324489 4.871544
460 3 61 -0.543701 33.950412 33.209850 5.354657
461 3 63 -0.193282 33.180072 35.294862 5.096505
462 3 5 -0.093861 31.908170 35.074659 5.605775
463 3 5 0.020792 31.678245 35.807188 6.932096
464 3 5 -0.034582 31.769398 37.330523 6.813201
465 3 63 -0.280932 33.102283 37.709954 6.535147
466 3 5 -0.050274 33.160288 38.999906 5.959425
467 3 5 -0.063808 32.959779 40.112250 6.989943
468 3 63 -0.129316 33.186466 41.342862 6.402615
469 3 1 0.241915 32.455938 42.486091 6.207808
470 3 61 -0.431956 33.052692 43.360417 5.595095
471 3 5 0.076778 30.972076 42.781135 6.617268
472 3 5 0.007712 30.745257 43.024762 8.179948
473 3 5 -0.061894 30.597525 44.170572 6.011336
474 3 5 0.056116 35.402111 36.045915 3.424497
475 3 5 0.05545 34.560550 36.614552 2.215433
476 3 5 -0.05119 34.986771 36.003475 0.855597
477 3 1 0.569341 34.850310 38.116624 2.171894
478 3 61 -0.460243 34.553145 38.800735 3.140669
479 3 63 -0.319007 35.482053 38.692723 1.108663
480 3 5 -0.108445 35.841366 40.029986 1.054572
481 3 5 0.012954 34.609824 40.941140 0.953553
482 3 5 0.08119 35.009055 42.424459 1.050167
483 3 63 -0.429479 33.897342 43.290351 0.904746
484 3 5 0.037426 33.025334 43.240294 2.023827
485 3 5 -0.124873 31.664954 42.724643 1.550885
486 3 63 -0.339884 30.743172 42.640364 2.577144
487 3 1 0.702982 30.761661 41.717915 3.579169
488 3 61 -0.572459 31.686544 40.924470 3.668412
489 3 5 0.076161 29.573408 41.604543 4.521601
490 3 5 -0.064226 29.975313 41.701959 6.043781
491 3 5 -0.072611 28.479692 42.643693 4.144526
492 3 5 -0.072611 28.927662 40.213912 4.299974
493 3 5 -0.05119 33.043881 36.427590 2.395818
494 3 26 0.044876 40.181957 35.363572 10.787686
495 3 26 0.044876 40.033584 35.652993 9.028106
496 3 26 0.044876 38.753461 36.245414 10.180419
497 3 26 0.064026 41.676544 37.124875 10.041000
498 3 27 0.2808 42.423444 37.644982 12.019429
499 3 26 0.020319 41.883644 40.556636 13.241976
500 3 26 0.020319 41.117843 40.343797 14.864080
501 3 26 0.020319 40.157609 40.115352 13.405343
502 3 26 0.020319 40.527011 37.987814 15.689899
503 3 26 0.020319 40.824454 36.561258 14.621826
504 3 26 0.020319 39.505117 37.730067 14.271478
505 3 20 0.04237 43.271059 37.203129 14.247920
506 3 20 0.04237 43.699719 38.853927 13.721960
507 3 26 -0.000613 40.953267 39.323526 9.284763
508 3 26 -0.000613 40.818787 38.026304 8.112213
509 3 26 0.111889 39.114792 39.743531 7.876380
510 3 27 0.166048 39.593436 40.955316 10.125387
511 3 26 0.004168 37.207017 42.920057 9.638081
512 3 26 0.004168 36.131026 42.940506 11.088123
513 3 26 0.004168 36.081042 41.576281 9.958351
514 3 26 0.004168 36.644114 41.454320 13.071945
515 3 26 0.004168 37.996942 40.279538 13.022053
516 3 26 0.004168 36.511095 40.023009 12.062726
517 3 20 -0.076599 39.709954 42.117210 12.304167
518 3 20 -0.076599 39.312698 43.215949 10.964020
519 3 26 0.093897 37.785188 37.017434 8.421126
520 3 26 0.093897 37.098513 38.382856 7.516116
521 3 26 0.093901 39.600226 36.807863 6.684005
522 3 27 0.17792 41.074525 38.114238 5.606181
523 3 26 0.041813 40.478933 38.987625 2.552140
524 3 26 0.041813 40.574576 40.787426 2.471375
525 3 26 0.041813 39.134536 40.022593 3.138066
526 3 26 0.041813 40.929850 42.140465 4.625936
527 3 26 0.041813 41.052257 41.284682 6.213208
528 3 26 0.041813 39.485186 41.419902 5.347286
529 3 20 0.02694 42.880509 39.713093 5.369409
530 3 20 0.02694 42.660301 38.808393 3.846517
531 3 26 0.061117 36.871118 37.151802 5.348308
532 3 26 0.061117 38.310437 36.359705 4.629730
533 3 26 0.003416 39.009498 34.754456 7.352698
534 3 26 0.003416 39.276184 34.239209 5.657538
535 3 26 0.003416 38.258142 33.257951 6.770403
536 3 20 0.042187 36.206889 33.530785 10.053868
537 3 20 0.042187 34.756732 33.932705 9.096632
538 3 26 0.040297 36.537427 35.899789 10.750812
539 3 26 0.040297 34.994040 35.155136 11.285458
540 3 20 0.060931 33.777447 36.220245 9.461462
541 3 20 0.060931 35.276599 37.146504 8.970741
542 3 20 0.02895 33.042926 38.353761 9.458373
543 3 20 0.02895 32.490875 37.938868 11.131156
544 3 20 0.126294 33.747323 39.948448 11.972432
545 3 20 0.126294 34.360891 40.225907 10.301752
546 3 26 0.024833 29.781525 40.184193 10.087230
547 3 26 0.024833 30.052623 40.159633 8.347872
548 3 26 0.024833 28.776425 41.213634 9.019137
549 3 26 0.024833 30.352030 42.081276 11.540235
550 3 26 0.024833 29.311643 43.147203 10.540416
551 3 26 0.024833 31.019196 43.608612 10.867047
552 3 26 0.013775 37.486494 34.230674 4.070489
553 3 26 0.013775 36.549035 33.221831 5.191645
554 3 26 0.02378 35.367546 32.503945 3.269838
555 3 26 0.02378 36.157381 33.674522 2.167574
556 3 26 0.02378 34.343863 33.583290 2.320805
557 3 20 0.090463 31.717346 33.992202 5.774171
558 3 20 0.090463 31.162371 35.423118 4.859926
559 3 26 0.032575 32.393773 35.439161 7.696840
560 3 26 0.032575 30.650742 35.555988 7.274954
561 3 20 0.044715 31.465546 37.763818 7.789480
562 3 20 0.044715 31.045154 37.654738 6.029859
563 3 20 0.110408 34.182861 39.120509 5.549512
564 3 20 0.110408 32.462995 39.094808 5.101951
565 3 20 0.146648 31.979224 40.042360 7.454516
566 3 20 0.146648 33.721631 39.963660 7.782004
567 3 26 0.058418 29.706098 43.422983 8.246636
568 3 26 0.058418 31.418332 43.864170 8.469839
569 3 26 0.013285 31.233399 44.978904 6.435468
570 3 26 0.013285 29.539898 44.441063 6.220931
571 3 26 0.013285 30.771480 44.196473 4.916940
572 3 26 -0.017702 35.167699 36.689919 4.292296
573 3 26 -0.017702 36.454933 36.228757 3.115905
574 3 26 -0.000851 36.079771 36.124920 0.694842
575 3 26 -0.000851 34.458101 36.518162 0.023586
576 3 26 -0.000851 34.735720 34.939046 0.740269
577 3 20 0.110657 36.482473 40.197303 0.163166
578 3 20 0.110657 36.441499 40.278115 1.958697
579 3 26 0.056777 33.912803 40.708147 1.779486
580 3 26 0.056777 34.084150 40.745035 -0.005818
581 3 20 0.047908 35.718838 42.652938 0.226870
582 3 20 0.047908 35.552884 42.637750 1.999064
583 3 20 0.122756 33.406154 42.617815 2.864825
584 3 20 0.122756 32.910005 44.265808 2.434304
585 3 20 0.127015 31.277437 43.433964 0.789155
586 3 20 0.127015 31.763999 41.730006 1.064352
587 3 26 0.003221 30.395034 40.726504 6.305813
588 3 26 0.003221 29.013255 41.781138 6.595524
589 3 26 0.009344 28.810170 43.692897 4.183704
590 3 26 0.009344 27.595497 42.541164 4.809937
591 3 26 0.009344 28.132588 42.477029 3.101201
592 3 26 0.009344 29.644921 39.396660 4.532580
593 3 26 0.009344 28.607593 40.088029 3.242330
594 3 26 0.009344 28.036211 40.081760 4.951258
595 3 26 -0.000851 32.688115 36.931252 3.318591
596 3 26 -0.000851 32.777091 35.352129 2.441475
597 3 26 -0.000851 32.493425 36.879609 1.542279
598 4 5 -0.17012 24.094696 2.646564 8.486376
599 4 5 -0.080377 24.798596 3.857117 9.084271
600 4 1 0.457661 24.770877 3.779927 10.599880
601 4 61 -0.517308 23.702450 3.847976 11.184462
602 4 37 -0.494922 25.943694 3.591010 11.286604
603 4 5 0.377671 26.088635 3.464437 12.744948
604 4 5 -0.087202 25.629908 4.769542 13.420128
605 4 5 -0.087202 25.249653 2.272565 13.256289
606 4 5 -0.202714 27.601694 3.213994 13.049857
607 4 79 1.146806 28.110120 2.952254 14.797024
608 4 61 -0.692005 27.480038 1.446049 15.331530
609 4 61 -0.692005 29.825562 2.844841 14.798159
610 4 61 -0.692005 27.612547 4.212043 15.852240
611 4 5 0.033234 24.347271 5.228617 8.500091
612 4 5 -0.040801 22.855410 5.704453 8.427297