LAMMPS Description

6143  atoms
4335  bonds
3434  angles
2295  dihedrals
0  impropers

90  atom types
840  bond types
4614  angle types
985  dihedral types
38  improper types

-0.05 40.05 xlo xhi
-0.05 40.05 ylo yhi
-0.05 40.05 zlo zhi

Masses

1 12.01  # c
2 12.01  # cs
3 12.01  # c1
4 12.01  # c2
5 12.01  # c3
6 12.01  # ca
7 12.01  # cp
8 12.01  # cq
9 12.01  # cc
10 12.01  # cd
11 12.01  # ce
12 12.01  # cf
13 12.01  # cg
14 12.01  # ch
15 12.01  # cx
16 12.01  # cy
17 12.01  # cu
18 12.01  # cv
19 12.01  # cz
20 1.008  # h1
21 1.008  # h2
22 1.008  # h3
23 1.008  # h4
24 1.008  # h5
25 1.008  # ha
26 1.008  # hc
27 1.008  # hn
28 1.008  # ho
29 1.008  # hp
30 1.008  # hs
31 1.008  # hw
32 1.008  # hx
33 19.00  # f
34 35.45  # cl
35 79.90  # br
36 126.9  # i
37 14.01  # n
38 14.01  # n1
39 14.01  # n2
40 14.01  # n3
41 14.01  # n4
42 14.01  # na
43 14.01  # nb
44 14.01  # nc
45 14.01  # nd
46 14.01  # ne
47 14.01  # nf
48 14.01  # nh
49 14.01  # no
50 14.01  # ns
51 14.01  # nt
52 14.01  # nx
53 14.01  # ny
54 14.01  # nz
55 14.01  # n+
56 14.01  # nu
57 14.01  # nv
58 14.01  # n7
59 14.01  # n8
60 14.01  # n9
61 16.00  # o
62 16.00  # oh
63 16.00  # os
64 16.00  # ow
65 30.97  # p2
66 30.97  # p3
67 30.97  # p4
68 30.97  # p5
69 30.97  # pb
70 30.97  # pc
71 30.97  # pd
72 30.97  # pe
73 30.97  # pf
74 30.97  # px
75 30.97  # py
76 32.06  # s
77 32.06  # s2
78 32.06  # s4
79 32.06  # s6
80 32.06  # sh
81 32.06  # ss
82 32.06  # sx
83 32.06  # sy
84 6.94  # li+
85 39.10  # k+
86 22.99  # na+
87 35.45  # cl-
88 19.00  # fl-
89 79.90  # br-
90 126.9  # i-

Atoms

1 1 5 -0.213032 14.284 13.635 24.007
2 1 26 0.039779 15.266 14.110 23.811
3 1 26 0.039779 13.770 13.754 23.000
4 1 5 0.401013 13.642 14.519 25.133
5 1 20 -0.03045 13.645 15.559 24.790
6 1 62 -0.701006 14.490 14.439 26.316
7 1 28 0.393337 14.485 13.507 26.537
8 1 5 -0.115738 12.209 14.119 25.512
9 1 26 0.047276 11.716 13.807 24.556
10 1 26 0.047276 12.257 13.258 26.198
11 1 5 0.088994 11.197 15.193 25.949
12 1 20 0.044009 11.104 15.902 25.080
13 1 62 -0.611546 11.751 15.856 27.175
14 1 28 0.382585 11.829 15.079 27.749
15 1 5 0.004558 9.827 14.584 26.204
16 1 26 0.03131 9.522 14.071 25.304
17 1 26 0.03131 9.820 13.913 27.059
18 1 5 0.079508 8.731 15.704 26.430
19 1 20 0.080143 8.693 16.310 25.514
20 1 62 -0.631524 9.033 16.666 27.465
21 1 28 0.40298 8.214 17.061 27.787
22 1 5 0.049683 7.274 15.050 26.647
23 1 26 0.011055 7.227 14.049 26.247
24 1 26 0.011055 7.013 14.881 27.702
25 1 5 0.082195 6.115 15.842 25.969
26 1 20 0.133927 6.205 15.653 24.828
27 1 63 -0.453154 6.325 17.263 26.249
28 1 79 1.1499 5.959 18.294 25.099
29 1 61 -0.641597 7.045 18.118 24.179
30 1 61 -0.641597 4.624 17.808 24.662
31 1 61 -0.641597 5.870 19.543 25.869
32 1 5 -0.133392 4.740 15.323 26.316
33 1 26 0.109112 4.072 15.225 25.458
34 1 26 0.109112 4.892 14.209 26.540
35 1 5 0.030565 4.102 15.935 27.501
36 1 20 0.146564 4.193 17.043 27.471
37 1 63 -0.403762 4.608 15.268 28.625
38 1 79 1.146494 4.605 15.960 30.109
39 1 61 -0.640762 4.378 17.368 29.877
40 1 61 -0.640762 3.497 15.286 30.757
41 1 61 -0.640762 5.852 15.721 30.711
42 1 5 -0.134227 2.533 15.683 27.492
43 1 26 0.033347 2.058 16.371 28.222
44 1 26 0.033347 2.141 15.970 26.550
45 1 5 0.421544 1.992 14.228 27.815
46 1 20 0.061041 2.178 13.951 28.875
47 1 63 -0.496054 2.679 13.301 26.920
48 1 79 1.197211 2.688 11.749 27.289
49 1 61 -0.675044 2.931 11.708 28.771
50 1 61 -0.675044 3.858 11.270 26.561
51 1 61 -0.675044 1.423 11.109 26.954
52 1 26 0.039779 14.363 12.653 24.360
53 1 5 -0.04737 0.525 14.227 27.390
54 1 26 -0.012108 -0.014 13.393 27.681
55 1 26 -0.012108 0.389 14.432 26.312
56 1 26 -0.012108 0.004 15.030 27.940
57 2 5 -0.213032 17.785 20.480 14.309
58 2 26 0.039779 18.401 20.743 15.193
59 2 26 0.039779 17.093 19.688 14.743
60 2 5 0.401013 18.812 19.900 13.276
61 2 20 -0.03045 19.368 19.094 13.766
62 2 62 -0.701006 19.763 20.950 12.937
63 2 28 0.393337 19.215 21.638 12.559
64 2 5 -0.115738 18.177 19.359 11.987
65 2 26 0.047276 17.213 18.882 12.298
66 2 26 0.047276 17.966 20.210 11.318
67 2 5 0.088994 18.803 18.153 11.264
68 2 20 0.044009 18.782 17.306 12.001
69 2 62 -0.611546 20.199 18.542 10.873
70 2 28 0.382585 19.997 19.316 10.326
71 2 5 0.004558 17.971 17.746 10.058
72 2 26 0.03131 16.967 17.545 10.402
73 2 26 0.03131 17.972 18.498 9.274
74 2 5 0.079508 18.476 16.376 9.445
75 2 20 0.080143 18.376 15.613 10.229
76 2 62 -0.631524 19.879 16.333 9.101
77 2 28 0.40298 20.026 15.655 8.430
78 2 5 0.049683 17.556 15.927 8.200
79 2 26 0.011055 16.587 16.401 8.234
80 2 26 0.011055 17.933 16.258 7.222
81 2 5 0.082195 17.284 14.393 8.133
82 2 20 0.133927 16.532 14.151 8.983
83 2 63 -0.453154 18.551 13.705 8.390
84 2 79 1.1499 18.494 12.361 9.232
85 2 61 -0.641597 18.268 12.849 10.561
86 2 61 -0.641597 17.370 11.638 8.583
87 2 61 -0.641597 19.799 11.773 8.898
88 2 5 -0.133392 16.567 13.956 6.879
89 2 26 0.109112 15.745 13.261 7.055
90 2 26 0.109112 15.952 14.869 6.556
91 2 5 0.030565 17.433 13.579 5.743
92 2 20 0.146564 18.252 12.902 6.076
93 2 63 -0.403762 17.794 14.766 5.091
94 2 79 1.146494 19.139 14.867 4.162
95 2 61 -0.640762 19.932 13.709 4.508
96 2 61 -0.640762 18.587 14.819 2.823
97 2 61 -0.640762 19.800 16.067 4.468
98 2 5 -0.134227 16.630 12.707 4.684
99 2 26 0.033347 17.357 12.216 4.002
100 2 26 0.033347 16.146 11.911 5.187
101 2 5 0.421544 15.553 13.423 3.767
102 2 20 0.061041 16.031 14.122 3.046
103 2 63 -0.496054 14.644 14.148 4.649
104 2 79 1.197211 13.740 15.307 4.030
105 2 61 -0.675044 14.651 16.047 3.093
106 2 61 -0.675044 13.439 16.119 5.204
107 2 61 -0.675044 12.591 14.768 3.316
108 2 26 0.039779 17.309 21.307 13.877
109 2 5 -0.04737 14.734 12.300 3.135
110 2 26 -0.012108 14.087 12.599 2.384
111 2 26 -0.012108 14.212 11.674 3.883
112 2 26 -0.012108 15.421 11.637 2.582
113 3 5 -0.213032 22.960 28.427 23.582
114 3 26 0.039779 22.807 28.808 24.612
115 3 26 0.039779 23.478 29.311 23.090
116 3 5 0.401013 21.509 28.185 23.038
117 3 20 -0.03045 20.941 29.113 23.158
118 3 62 -0.701006 20.874 27.166 23.866
119 3 28 0.393337 21.437 26.400 23.755
120 3 5 -0.115738 21.450 27.748 21.567
121 3 26 0.047276 22.264 28.314 21.046
122 3 26 0.047276 21.663 26.668 21.515
123 3 5 0.088994 20.270 28.181 20.680
124 3 20 0.044009 20.285 29.306 20.671
125 3 62 -0.611546 19.018 27.628 21.298
126 3 28 0.382585 19.244 26.686 21.286
127 3 5 0.004558 20.454 27.700 19.249
128 3 26 0.03131 21.400 28.079 18.892
129 3 26 0.03131 20.410 26.617 19.162
130 3 5 0.079508 19.370 28.330 18.284
131 3 20 0.080143 19.498 29.420 18.318
132 3 62 -0.631524 17.996 28.133 18.686
133 3 28 0.40298 17.420 28.204 17.915
134 3 5 0.049683 19.605 27.855 16.762
135 3 26 0.011055 20.619 27.521 16.605
136 3 26 0.011055 19.030 26.962 16.478
137 3 5 0.082195 19.348 28.969 15.701
138 3 20 0.133927 20.237 29.710 15.776
139 3 63 -0.453154 18.106 29.651 16.067
140 3 79 1.1499 18.037 31.219 15.825
141 3 61 -0.641597 18.854 31.724 16.888
142 3 61 -0.641597 18.579 31.342 14.446
143 3 61 -0.641597 16.584 31.439 15.872
144 3 5 -0.133392 19.405 28.477 14.275
145 3 26 0.109112 19.979 29.118 13.605
146 3 26 0.109112 20.117 27.578 14.301
147 3 5 0.030565 18.123 28.013 13.705
148 3 20 0.146564 17.309 28.740 13.919
149 3 63 -0.403762 17.943 26.689 14.127
150 3 79 1.146494 16.459 26.000 14.194
151 3 61 -0.640762 15.522 27.098 14.127
152 3 61 -0.640762 16.461 25.158 13.014
153 3 61 -0.640762 16.353 25.293 15.403
154 3 5 -0.134227 18.191 27.978 12.117
155 3 26 0.033347 17.157 27.899 11.718
156 3 26 0.033347 18.550 28.911 11.764
157 3 5 0.421544 19.041 26.838 11.415
158 3 20 0.061041 18.582 25.838 11.563
159 3 63 -0.496054 20.379 26.873 11.998
160 3 79 1.197211 21.319 25.595 11.833
161 3 61 -0.675044 20.413 24.419 12.062
162 3 61 -0.675044 22.249 25.754 12.946
163 3 61 -0.675044 21.917 25.537 10.505
164 3 26 0.039779 23.482 27.521 23.551
165 3 5 -0.04737 19.196 27.274 9.959
166 3 26 -0.012108 19.596 26.557 9.328
167 3 26 -0.012108 19.727 28.238 9.852
168 3 26 -0.012108 18.189 27.409 9.528
169 4 5 -0.213032 31.143 13.791 36.089
170 4 26 0.039779 32.229 13.612 35.956
171 4 26 0.039779 30.997 13.490 37.177
172 4 5 0.401013 30.459 12.802 35.082
173 4 20 -0.03045 30.837 11.795 35.283
174 4 62 -0.701006 30.870 13.168 33.732
175 4 28 0.393337 30.553 14.066 33.633
176 4 5 -0.115738 28.925 12.785 35.154
177 4 26 0.047276 28.669 12.905 36.237
178 4 26 0.047276 28.540 13.649 34.588
179 4 5 0.088994 28.153 11.481 34.882
180 4 20 0.044009 28.511 10.744 35.652
181 4 62 -0.611546 28.479 11.054 33.481
182 4 28 0.382585 28.177 11.841 33.005
183 4 5 0.004558 26.658 11.678 35.081
184 4 26 0.03131 26.504 12.048 36.084
185 4 26 0.03131 26.224 12.351 34.345
186 4 5 0.079508 25.883 10.299 35.027
187 4 20 0.080143 26.278 9.674 35.839
188 4 62 -0.631524 26.113 9.507 33.841
189 4 28 0.40298 25.372 8.903 33.707
190 4 5 0.049683 24.307 10.512 35.291
191 4 26 0.011055 24.115 11.441 35.805
192 4 26 0.011055 23.714 10.638 34.373
193 4 5 0.082195 23.651 9.394 36.157
194 4 20 0.133927 24.018 9.558 37.245
195 4 63 -0.453154 24.141 8.106 35.663
196 4 79 1.1499 24.414 6.970 36.738
197 4 61 -0.641597 25.634 7.419 37.345
198 4 61 -0.641597 23.188 7.033 37.573
199 4 61 -0.641597 24.439 5.779 35.877
200 4 5 -0.133392 22.149 9.506 36.258
201 4 26 0.109112 21.761 9.375 37.269
202 4 26 0.109112 21.926 10.625 36.136
203 4 5 0.030565 21.380 8.783 35.225
204 4 20 0.146564 21.766 7.747 35.097
205 4 63 -0.403762 21.338 9.608 34.094
206 4 79 1.146494 21.085 9.002 32.594
207 4 61 -0.640762 21.319 7.580 32.709
208 4 61 -0.640762 19.699 9.351 32.355
209 4 61 -0.640762 21.991 9.612 31.711
210 4 5 -0.134227 19.874 8.570 35.687
211 4 26 0.033347 19.407 7.801 35.035
212 4 26 0.033347 19.866 8.146 36.659
213 4 5 0.421544 18.895 9.817 35.698
214 4 20 0.061041 18.682 10.176 34.667
215 4 63 -0.496054 19.541 10.869 36.478
216 4 79 1.197211 19.031 12.370 36.308
217 4 61 -0.675044 18.809 12.536 34.831
218 4 61 -0.675044 20.191 13.139 36.744
219 4 61 -0.675044 17.796 12.604 37.045
220 4 26 0.039779 30.852 14.767 35.847
221 4 5 -0.04737 17.672 9.378 36.500
222 4 26 -0.012108 16.869 10.031 36.466
223 4 26 -0.012108 17.917 9.102 37.542
224 4 26 -0.012108 17.246 8.480 36.019
225 5 5 -0.213032 38.420 25.114 21.711
226 5 26 0.039779 39.160 25.655 21.087
227 5 26 0.039779 37.440 25.442 21.237
228 5 5 0.401013 38.630 25.693 23.153
229 5 20 -0.03045 38.546 26.783 23.097
230 5 62 -0.701006 39.986 25.374 23.582
231 5 28 0.393337 40.010 24.417 23.567
232 5 5 -0.115738 37.634 25.167 24.197
233 5 26 0.047276 36.655 25.065 23.663
234 5 26 0.047276 37.974 24.173 24.534
235 5 5 0.088994 37.170 26.076 25.349
236 5 20 0.044009 36.674 26.962 24.864
237 5 62 -0.611546 38.389 26.460 26.136
238 5 28 0.382585 38.698 25.574 26.382
239 5 5 0.004558 36.134 25.377 26.215
240 5 26 0.03131 35.320 25.073 25.575
241 5 26 0.03131 36.544 24.528 26.757
242 5 5 0.079508 35.485 26.376 27.258
243 5 20 0.080143 34.997 27.174 26.683
244 5 62 -0.631524 36.421 27.084 28.101
245 5 28 0.40298 35.978 27.366 28.910
246 5 5 0.049683 34.351 25.638 28.136
247 5 26 0.011055 33.981 24.754 27.640
248 5 26 0.011055 34.721 25.222 29.085
249 5 5 0.082195 33.103 26.524 28.433
250 5 20 0.133927 32.508 26.604 27.441
251 5 63 -0.453154 33.583 27.850 28.828
252 5 79 1.1499 32.738 29.103 28.344
253 5 61 -0.641597 33.081 29.180 26.954
254 5 61 -0.641597 31.350 28.683 28.669
255 5 61 -0.641597 33.233 30.138 29.262
256 5 5 -0.133392 32.125 25.891 29.393
257 5 26 0.109112 31.082 25.969 29.082
258 5 26 0.109112 32.260 24.761 29.254
259 5 5 0.030565 32.342 26.191 30.824
260 5 20 0.146564 32.516 27.279 30.978
261 5 63 -0.403762 33.325 25.303 31.283
262 5 79 1.146494 34.239 25.636 32.599
263 5 61 -0.640762 34.069 27.051 32.839
264 5 61 -0.640762 33.633 24.793 33.612
265 5 61 -0.640762 35.574 25.310 32.305
266 5 5 -0.134227 31.031 25.893 31.672
267 5 26 0.033347 31.131 26.379 32.665
268 5 26 0.033347 30.205 26.376 31.212
269 5 5 0.421544 30.621 24.385 31.938
270 5 20 0.061041 31.347 23.879 32.611
271 5 63 -0.496054 30.576 23.712 30.643
272 5 79 1.197211 30.631 22.118 30.607
273 5 61 -0.675044 31.668 21.747 31.629
274 5 61 -0.675044 31.122 21.861 29.258
275 5 61 -0.675044 29.342 21.529 30.942
276 5 26 0.039779 38.584 24.080 21.741
277 5 5 -0.04737 29.183 24.430 32.449
278 5 26 -0.012108 28.821 23.534 32.819
279 5 26 -0.012108 28.480 24.872 31.719
280 5 26 -0.012108 29.154 25.067 33.351
281 6 5 -0.213032 27.604 39.036 39.161
282 6 26 0.039779 28.104 39.424 40.072
283 6 26 0.039779 26.909 38.251 39.602
284 6 5 0.401013 28.769 38.416 38.312
285 6 20 -0.03045 29.305 37.700 38.942
286 6 62 -0.701006 29.698 39.484 37.964
287 6 28 0.393337 29.163 40.095 37.458
288 6 5 -0.115738 28.309 37.709 37.028
289 6 26 0.047276 27.341 37.210 37.284
290 6 26 0.047276 28.133 38.474 36.253
291 6 5 0.088994 29.071 36.478 36.510
292 6 20 0.044009 29.010 35.709 37.328
293 6 62 -0.611546 30.482 36.909 36.231
294 6 28 0.382585 30.304 37.609 35.585
295 6 5 0.004558 28.401 35.899 35.273
296 6 26 0.03131 27.376 35.673 35.529
297 6 26 0.03131 28.453 36.567 34.417
298 6 5 0.079508 29.039 34.507 34.869
299 6 20 0.080143 28.890 33.824 35.716
300 6 62 -0.631524 30.472 34.515 34.683
301 6 28 0.40298 30.727 33.783 34.109
302 6 5 0.049683 28.287 33.878 33.589
303 6 26 0.011055 27.299 34.293 33.468
304 6 26 0.011055 28.755 34.131 32.627
305 6 5 0.082195 28.101 32.331 33.660
306 6 20 0.133927 27.272 32.132 34.445
307 6 63 -0.453154 29.364 31.753 34.121
308 6 79 1.1499 29.279 30.500 35.093
309 6 61 -0.641597 28.882 31.105 36.330
310 6 61 -0.641597 28.272 29.647 34.410
311 6 61 -0.641597 30.641 29.962 34.964
312 6 5 -0.133392 27.552 31.727 32.390
313 6 26 0.109112 26.750 31.004 32.551
314 6 26 0.109112 26.933 32.562 31.908
315 6 5 0.030565 28.558 31.290 31.399
316 6 20 0.146564 29.366 30.702 31.889
317 6 63 -0.403762 28.930 32.425 30.667
318 6 79 1.146494 30.364 32.511 29.881
319 6 61 -0.640762 31.169 31.445 30.432
320 6 61 -0.640762 29.968 32.294 28.503
321 6 61 -0.640762 30.927 33.774 30.124
322 6 5 -0.134227 27.923 30.268 30.361
323 6 26 0.033347 28.745 29.755 29.817
324 6 26 0.033347 27.425 29.498 30.893
325 6 5 0.421544 26.921 30.819 29.263
326 6 20 0.061041 27.442 31.469 28.527
327 6 63 -0.496054 25.883 31.573 29.961
328 6 79 1.197211 24.999 32.606 29.128
329 6 61 -0.675044 25.972 33.301 28.219
330 6 61 -0.675044 24.529 33.514 30.169
331 6 61 -0.675044 23.964 31.928 28.358
332 6 26 0.039779 27.140 39.784 38.595
333 6 5 -0.04737 26.234 29.589 28.673
334 6 26 -0.012108 25.661 29.770 27.830
335 6 26 -0.012108 25.664 29.012 29.424
336 6 26 -0.012108 27.011 28.917 28.271
337 7 5 -0.213032 13.292 34.737 30.374
338 7 26 0.039779 13.577 35.808 30.355
339 7 26 0.039779 13.201 34.546 31.492
340 7 5 0.401013 14.513 33.998 29.723
341 7 20 -0.03045 15.417 34.292 30.265
342 7 62 -0.701006 14.648 34.462 28.348
343 7 28 0.393337 13.816 34.219 27.942
344 7 5 -0.115738 14.402 32.466 29.728
345 7 26 0.047276 13.909 32.199 30.697
346 7 26 0.047276 13.753 32.160 28.890
347 7 5 0.088994 15.666 31.600 29.870
348 7 20 0.044009 16.125 31.884 30.857
349 7 62 -0.611546 16.559 31.920 28.707
350 7 28 0.382585 15.958 31.689 27.983
351 7 5 0.004558 15.315 30.121 29.925
352 7 26 0.03131 14.622 29.978 30.740
353 7 26 0.03131 14.900 29.754 28.989
354 7 5 0.079508 16.577 29.242 30.298
355 7 20 0.080143 16.920 29.571 31.289
356 7 62 -0.631524 17.735 29.433 29.455
357 7 28 0.40298 18.297 28.650 29.496
358 7 5 0.049683 16.183 27.683 30.406
359 7 26 0.011055 15.126 27.554 30.574
360 7 26 0.011055 16.331 27.119 29.474
361 7 5 0.082195 16.900 26.925 31.565
362 7 20 0.133927 16.406 27.281 32.552
363 7 63 -0.453154 18.310 27.322 31.550
364 7 79 1.1499 19.035 27.485 32.952
365 7 61 -0.641597 18.492 28.723 33.428
366 7 61 -0.641597 18.613 26.250 33.664
367 7 61 -0.641597 20.445 27.435 32.539
368 7 5 -0.133392 16.660 25.434 31.556
369 7 26 0.109112 16.419 25.017 32.535
370 7 26 0.109112 15.635 25.302 31.059
371 7 5 0.030565 17.635 24.631 30.789
372 7 20 0.146564 18.677 24.938 31.030
373 7 63 -0.403762 17.234 24.676 29.447
374 7 79 1.146494 18.290 24.407 28.224
375 7 61 -0.640762 19.603 24.526 28.816
376 7 61 -0.640762 17.949 23.057 27.821
377 7 61 -0.640762 18.072 25.375 27.230
378 7 5 -0.134227 17.579 23.105 31.228
379 7 26 0.033347 18.489 22.592 30.849
380 7 26 0.033347 17.652 23.044 32.284
381 7 5 0.421544 16.337 22.226 30.780
382 7 20 0.061041 16.331 22.062 29.680
383 7 63 -0.496054 15.131 22.937 31.193
384 7 79 1.197211 13.743 22.548 30.511
385 7 61 -0.675044 14.066 22.370 29.055
386 7 61 -0.675044 12.952 23.756 30.719
387 7 61 -0.675044 13.193 21.321 31.073
388 7 26 0.039779 12.436 34.527 29.808
389 7 5 -0.04737 16.399 20.957 31.626
390 7 26 -0.012108 15.744 20.208 31.342
391 7 26 -0.012108 16.326 21.158 32.711
392 7 26 -0.012108 17.376 20.471 31.454
393 8 5 -0.213032 7.693 6.958 19.327
394 8 26 0.039779 6.688 6.567 19.068
395 8 26 0.039779 8.369 6.159 18.881
396 8 5 0.401013 7.711 6.972 20.896
397 8 20 -0.03045 7.450 5.969 21.248
398 8 62 -0.701006 6.676 7.889 21.357
399 8 28 0.393337 6.935 8.732 20.982
400 8 5 -0.115738 9.058 7.383 21.509
401 8 26 0.047276 9.844 6.944 20.844
402 8 26 0.047276 9.132 8.483 21.486
403 8 5 0.088994 9.519 6.769 22.842
404 8 20 0.044009 9.582 5.660 22.666
405 8 62 -0.611546 8.496 7.129 23.879
406 8 28 0.382585 8.542 8.095 23.811
407 8 5 0.004558 10.907 7.261 23.221
408 8 26 0.03131 11.575 7.027 22.406
409 8 26 0.03131 10.928 8.324 23.450
410 8 5 0.079508 11.483 6.466 24.464
411 8 20 0.080143 11.540 5.408 24.173
412 8 62 -0.631524 10.637 6.454 25.635
413 8 28 0.40298 11.174 6.290 26.419
414 8 5 0.049683 12.974 6.960 24.825
415 8 26 0.011055 13.445 7.441 23.982
416 8 26 0.011055 13.010 7.753 25.586
417 8 5 0.082195 13.935 5.810 25.258
418 8 20 0.133927 14.194 5.213 24.297
419 8 63 -0.453154 13.206 4.950 26.190
420 8 79 1.1499 13.481 3.389 26.107
421 8 61 -0.641597 12.774 3.022 24.915
422 8 61 -0.641597 14.965 3.338 26.048
423 8 61 -0.641597 12.962 2.949 27.410
424 8 5 -0.133392 15.275 6.294 25.756
425 8 26 0.109112 16.126 5.742 25.354
426 8 26 0.109112 15.450 7.291 25.216
427 8 5 0.030565 15.366 6.553 27.208
428 8 20 0.146564 14.925 5.712 27.788
429 8 63 -0.403762 14.851 7.837 27.427
430 8 79 1.146494 14.263 8.292 28.886
431 8 61 -0.640762 14.061 7.063 29.620
432 8 61 -0.640762 15.337 9.115 29.404
433 8 61 -0.640762 13.058 8.984 28.682
434 8 5 -0.134227 16.882 6.586 27.684
435 8 26 0.033347 16.910 6.503 28.791
436 8 26 0.033347 17.375 5.715 27.332
437 8 5 0.421544 17.777 7.835 27.295
438 8 20 0.061041 17.441 8.756 27.820
439 8 63 -0.496054 17.676 8.010 25.849
440 8 79 1.197211 18.088 9.415 25.217
441 8 61 -0.675044 17.518 10.440 26.156
442 8 61 -0.675044 17.357 9.408 23.955
443 8 61 -0.675044 19.535 9.553 25.116
444 8 26 0.039779 7.858 7.933 18.984
445 8 5 -0.04737 19.218 7.417 27.577
446 8 26 -0.012108 19.915 8.181 27.522
447 8 26 -0.012108 19.538 6.544 26.978
448 8 26 -0.012108 19.295 7.127 28.639
449 9 5 -0.213032 31.996 36.766 11.492
450 9 26 0.039779 31.876 36.527 10.416
451 9 26 0.039779 33.118 36.943 11.560
452 9 5 0.401013 31.535 35.463 12.233
453 9 20 -0.03045 32.109 34.622 11.831
454 9 62 -0.701006 30.131 35.231 11.920
455 9 28 0.393337 29.691 36.014 12.252
456 9 5 -0.115738 31.711 35.507 13.758
457 9 26 0.047276 32.662 36.068 13.941
458 9 26 0.047276 30.865 36.067 14.191
459 9 5 0.088994 32.053 34.222 14.534
460 9 20 0.044009 33.033 33.861 14.117
461 9 62 -0.611546 30.934 33.248 14.301
462 9 28 0.382585 30.198 33.775 14.643
463 9 5 0.004558 32.252 34.512 16.013
464 9 26 0.03131 33.021 35.265 16.101
465 9 26 0.03131 31.336 34.829 16.505
466 9 5 0.079508 32.825 33.249 16.777
467 9 20 0.080143 33.794 33.007 16.321
468 9 62 -0.631524 32.059 32.033 16.621
469 9 28 0.40298 32.236 31.443 17.364
470 9 5 0.049683 33.081 33.583 18.333
471 9 26 0.011055 33.178 34.645 18.498
472 9 26 0.011055 32.236 33.331 18.989
473 9 5 0.082195 34.373 32.935 18.916
474 9 20 0.133927 35.270 33.527 18.477
475 9 63 -0.453154 34.424 31.548 18.450
476 9 79 1.1499 35.851 30.952 18.091
477 9 61 -0.641597 36.136 31.587 16.837
478 9 61 -0.641597 36.666 31.378 19.258
479 9 61 -0.641597 35.560 29.512 18.113
480 9 5 -0.133392 34.520 33.108 20.409
481 9 26 0.109112 35.519 33.413 20.726
482 9 26 0.109112 33.962 34.080 20.650
483 9 5 0.030565 33.932 32.038 21.241
484 9 20 0.146564 34.217 31.034 20.854
485 9 63 -0.403762 32.566 32.324 21.368
486 9 79 1.146494 31.471 31.158 21.718
487 9 61 -0.640762 32.147 29.905 21.463
488 9 61 -0.640762 31.202 31.404 23.121
489 9 61 -0.640762 30.356 31.332 20.881
490 9 5 -0.134227 34.540 32.064 22.709
491 9 26 0.033347 34.297 31.104 23.212
492 9 26 0.033347 35.598 32.079 22.646
493 9 5 0.421544 34.101 33.223 23.696
494 9 20 0.061041 33.031 33.128 23.984
495 9 63 -0.496054 34.331 34.490 23.009
496 9 79 1.197211 33.591 35.797 23.545
497 9 61 -0.675044 32.196 35.344 23.870
498 9 61 -0.675044 33.592 36.655 22.365
499 9 61 -0.675044 34.247 36.338 24.729
500 9 26 0.039779 31.393 37.560 11.808
501 9 5 -0.04737 35.092 33.178 24.857
502 9 26 -0.012108 34.846 33.774 25.667
503 9 26 -0.012108 36.137 33.352 24.539
504 9 26 -0.012108 35.054 32.170 25.307
505 10 5 -0.213032 13.695 24.833 21.976
506 10 26 0.039779 13.293 25.752 22.447
507 10 26 0.039779 13.515 25.046 20.873
508 10 5 0.401013 12.788 23.681 22.534
509 10 20 -0.03045 11.744 23.942 22.331
510 10 62 -0.701006 12.958 23.627 23.981
511 10 28 0.393337 13.890 23.442 24.094
512 10 5 -0.115738 13.083 22.297 21.939
513 10 26 0.047276 13.336 22.474 20.862
514 10 26 0.047276 13.960 21.875 22.457
515 10 5 0.088994 11.944 21.283 21.740
516 10 20 0.044009 11.212 21.773 21.040
517 10 62 -0.611546 11.351 21.004 23.090
518 10 28 0.382585 12.144 20.679 23.542
519 10 5 0.004558 12.451 20.013 21.071
520 10 26 0.03131 12.920 20.296 20.141
521 10 26 0.03131 13.137 19.453 21.701
522 10 5 0.079508 11.256 19.063 20.656
523 10 20 0.080143 10.629 19.621 19.947
524 10 62 -0.631524 10.343 18.717 21.721
525 10 28 0.40298 9.891 17.892 21.504
526 10 5 0.049683 11.799 17.746 19.902
527 10 26 0.011055 12.785 17.905 19.492
528 10 26 0.011055 11.970 16.888 20.568
529 10 5 0.082195 10.906 17.282 18.711
530 10 20 0.133927 11.078 18.039 17.850
531 10 63 -0.453154 9.512 17.345 19.151
532 10 79 1.1499 8.431 17.807 18.083
533 10 61 -0.641597 8.673 19.218 18.003
534 10 61 -0.641597 8.804 16.994 16.896
535 10 61 -0.641597 7.196 17.327 18.719
536 10 5 -0.133392 11.325 15.957 18.118
537 10 26 0.109112 11.353 15.947 17.028
538 10 26 0.109112 12.452 15.886 18.318
539 10 5 0.030565 10.692 14.760 18.710
540 10 20 0.146564 9.593 14.903 18.812
541 10 63 -0.403762 11.419 14.442 19.865
542 10 79 1.146494 10.760 13.568 21.083
543 10 61 -0.640762 9.334 13.598 20.851
544 10 61 -0.640762 11.360 12.264 20.880
545 10 61 -0.640762 11.106 14.176 22.301
546 10 5 -0.134227 10.822 13.512 17.734
547 10 26 0.033347 10.113 12.724 18.068
548 10 26 0.033347 10.485 13.791 16.768
549 10 5 0.421544 12.236 12.816 17.569
550 10 20 0.061041 12.549 12.302 18.504
551 10 63 -0.496054 13.196 13.860 17.219
552 10 79 1.197211 14.751 13.569 17.418
553 10 61 -0.675044 14.841 12.855 18.737
554 10 61 -0.675044 15.303 14.915 17.520
555 10 61 -0.675044 15.283 12.741 16.344
556 10 26 0.039779 14.687 24.633 22.242
557 10 5 -0.04737 12.115 11.915 16.342
558 10 26 -0.012108 12.911 11.270 16.192
559 10 26 -0.012108 11.878 12.475 15.418
560 10 26 -0.012108 11.286 11.206 16.512
561 11 5 -0.213032 26.583 6.857 25.447
562 11 26 0.039779 26.981 5.847 25.221
563 11 26 0.039779 25.721 6.932 24.710
564 11 5 0.401013 27.768 7.827 25.106
565 11 20 -0.03045 28.088 7.624 24.079
566 11 62 -0.701006 28.885 7.511 25.988
567 11 28 0.393337 28.532 7.663 26.865
568 11 5 -0.115738 27.425 9.318 25.240
569 11 26 0.047276 26.367 9.421 24.890
570 11 26 0.047276 27.488 9.596 26.305
571 11 5 0.088994 28.076 10.347 24.301
572 11 20 0.044009 27.774 10.050 23.259
573 11 62 -0.611546 29.560 10.271 24.513
574 11 28 0.382585 29.591 10.472 25.460
575 11 5 0.004558 27.538 11.746 24.563
576 11 26 0.03131 26.464 11.710 24.457
577 11 26 0.03131 27.822 12.128 25.539
578 11 5 0.079508 28.026 12.768 23.457
579 11 20 0.080143 27.646 12.408 22.491
580 11 62 -0.631524 29.456 12.830 23.261
581 11 28 0.40298 29.693 13.682 22.875
582 11 5 0.049683 27.408 14.235 23.714
583 11 26 0.011055 26.522 14.188 24.328
584 11 26 0.011055 28.056 14.895 24.308
585 11 5 0.082195 26.993 14.987 22.412
586 11 20 0.133927 26.028 14.473 22.025
587 11 63 -0.453154 28.069 14.809 21.436
588 11 79 1.1499 27.651 14.633 19.915
589 11 61 -0.641597 27.150 13.289 19.894
590 11 61 -0.641597 26.654 15.721 19.740
591 11 61 -0.641597 28.924 14.933 19.244
592 11 5 -0.133392 26.575 16.418 22.644
593 11 26 0.109112 25.662 16.706 22.119
594 11 26 0.109112 26.167 16.438 23.716
595 11 5 0.030565 27.653 17.424 22.559
596 11 20 0.146564 28.279 17.258 21.654
597 11 63 -0.403762 28.297 17.438 23.804
598 11 79 1.146494 29.837 17.972 23.971
599 11 61 -0.640762 30.383 18.000 22.633
600 11 61 -0.640762 29.641 19.286 24.552
601 11 61 -0.640762 30.528 17.075 24.801
602 11 5 -0.134227 27.054 18.880 22.342
603 11 26 0.033347 27.871 19.555 22.010
604 11 26 0.033347 26.372 18.856 21.531
605 11 5 0.421544 26.332 19.597 23.557
606 11 20 0.061041 27.052 19.856 24.363
607 11 63 -0.496054 25.315 18.679 24.062
608 11 79 1.197211 24.733 18.913 25.528
609 11 61 -0.675044 25.929 19.267 26.364
610 11 61 -0.675044 24.235 17.586 25.874
611 11 61 -0.675044 23.750 19.988 25.550
612 11 26 0.039779 26.329 6.984 26.455
613 11 5 -0.04737 25.579 20.781 22.953
614 11 26 -0.012108 25.182 21.444 23.641
615 11 26 -0.012108 24.819 20.475 22.212
616 11 26 -0.012108 26.306 21.422 22.425
617 12 5 -0.213032 25.412 8.953 28.134
618 12 26 0.039779 26.440 8.567 27.979
619 12 26 0.039779 24.942 8.759 27.116
620 12 5 0.401013 25.611 10.479 28.437
621 12 20 -0.03045 26.200 10.914 27.622
622 12 62 -0.701006 26.390 10.604 29.663
623 12 28 0.393337 25.848 10.170 30.321
624 12 5 -0.115738 24.303 11.272 28.587
625 12 26 0.047276 23.594 10.835 27.840
626 12 26 0.047276 23.912 11.108 29.605
627 12 5 0.088994 24.235 12.741 28.134
628 12 20 0.044009 24.473 12.736 27.034
629 12 62 -0.611546 25.245 13.504 28.938
630 12 28 0.382585 24.912 13.311 29.827
631 12 5 0.004558 22.832 13.301 28.306
632 12 26 0.03131 22.153 12.666 27.757
633 12 26 0.03131 22.537 13.378 29.350
634 12 5 0.079508 22.693 14.728 27.636
635 12 20 0.080143 22.905 14.605 26.565
636 12 62 -0.631524 23.662 15.710 28.066
637 12 28 0.40298 23.312 16.597 27.917
638 12 5 0.049683 21.189 15.290 27.779
639 12 26 0.011055 20.485 14.492 27.954
640 12 26 0.011055 21.032 15.925 28.663
641 12 5 0.082195 20.674 16.054 26.520
642 12 20 0.133927 20.468 15.253 25.707
643 12 63 -0.453154 21.746 16.944 26.072
644 12 79 1.1499 21.928 17.134 24.507
645 12 61 -0.641597 22.535 15.894 24.122
646 12 61 -0.641597 20.530 17.363 24.059
647 12 61 -0.641597 22.732 18.365 24.472
648 12 5 -0.133392 19.336 16.722 26.721
649 12 26 0.109112 18.634 16.568 25.899
650 12 26 0.109112 18.805 16.090 27.517
651 12 5 0.030565 19.381 18.114 27.214
652 12 20 0.146564 20.124 18.713 26.643
653 12 63 -0.403762 19.526 18.049 28.606
654 12 79 1.146494 20.157 19.293 29.465
655 12 61 -0.640762 20.807 20.142 28.492
656 12 61 -0.640762 18.973 19.884 30.059
657 12 61 -0.640762 21.067 18.771 30.397
658 12 5 -0.134227 18.003 18.857 26.936
659 12 26 0.033347 18.157 19.951 27.058
660 12 26 0.033347 17.740 18.731 25.917
661 12 5 0.421544 16.739 18.472 27.811
662 12 20 0.061041 16.863 18.790 28.869
663 12 63 -0.496054 16.579 17.023 27.731
664 12 79 1.197211 15.691 16.289 28.834
665 12 61 -0.675044 16.065 16.949 30.130
666 12 61 -0.675044 16.208 14.925 28.783
667 12 61 -0.675044 14.268 16.444 28.566
668 12 26 0.039779 24.924 8.513 28.949
669 12 5 -0.04737 15.535 19.076 27.089
670 12 26 -0.012108 14.647 19.045 27.619
671 12 26 -0.012108 15.402 18.677 26.067
672 12 26 -0.012108 15.697 20.163 26.993
673 13 5 -0.213032 36.035 12.895 12.698
674 13 26 0.039779 37.037 13.289 12.965
675 13 26 0.039779 36.309 11.997 12.056
676 13 5 0.401013 35.370 14.054 11.878
677 13 20 -0.03045 36.045 14.324 11.060
678 13 62 -0.701006 35.242 15.216 12.749
679 13 28 0.393337 34.683 14.906 13.461
680 13 5 -0.115738 33.990 13.706 11.296
681 13 26 0.047276 34.050 12.631 10.990
682 13 26 0.047276 33.238 13.821 12.093
683 13 5 0.088994 33.550 14.302 9.948
684 13 20 0.044009 34.304 13.951 9.192
685 13 62 -0.611546 33.540 15.795 10.100
686 13 28 0.382585 32.910 15.872 10.832
687 13 5 0.004558 32.188 13.767 9.532
688 13 26 0.03131 32.251 12.690 9.506
689 13 26 0.03131 31.389 14.097 10.191
690 13 5 0.079508 31.829 14.192 8.049
691 13 20 0.080143 32.601 13.767 7.394
692 13 62 -0.631524 31.894 15.611 7.781
693 13 28 0.40298 31.335 15.821 7.022
694 13 5 0.049683 30.408 13.576 7.600
695 13 26 0.011055 30.140 12.722 8.202
696 13 26 0.011055 29.556 14.248 7.773
697 13 5 0.082195 30.366 13.092 6.119
698 13 20 0.133927 30.986 12.112 6.072
699 13 63 -0.453154 31.008 14.119 5.298
700 13 79 1.1499 31.885 13.626 4.069
701 13 61 -0.641597 33.065 13.136 4.720
702 13 61 -0.641597 30.997 12.614 3.441
703 13 61 -0.641597 31.967 14.862 3.278
704 13 5 -0.133392 28.992 12.674 5.655
705 13 26 0.109112 28.976 11.735 5.100
706 13 26 0.109112 28.453 12.320 6.603
707 13 5 0.030565 28.168 13.740 5.046
708 13 20 0.146564 28.759 14.321 4.304
709 13 63 -0.403762 27.570 14.444 6.099
710 13 79 1.146494 27.048 15.985 5.917
711 13 61 -0.640762 27.675 16.464 4.706
712 13 61 -0.640762 25.614 15.810 5.805
713 13 61 -0.640762 27.449 16.724 7.042
714 13 5 -0.134227 26.986 13.118 4.186
715 13 26 0.033347 26.566 13.912 3.531
716 13 26 0.033347 27.384 12.397 3.518
717 13 5 0.421544 25.761 12.453 4.940
718 13 20 0.061041 25.159 13.210 5.488
719 13 63 -0.496054 26.307 11.469 5.872
720 13 79 1.197211 25.389 10.958 7.071
721 13 61 -0.675044 24.697 12.192 7.577
722 13 61 -0.675044 26.378 10.490 8.035
723 13 61 -0.675044 24.419 9.969 6.621
724 13 26 0.039779 35.436 12.690 13.531
725 13 5 -0.04737 24.999 11.662 3.879
726 13 26 -0.012108 24.081 11.294 4.182
727 13 26 -0.012108 25.611 10.868 3.412
728 13 26 -0.012108 24.703 12.357 3.074
729 14 5 -0.213032 27.591 33.264 25.638
730 14 26 0.039779 27.697 33.651 26.671