LAMMPS Description

5229  atoms
4471  bonds
6120  angles
8109  dihedrals
1224  impropers

90  atom types
840  bond types
4614  angle types
985  dihedral types
38  improper types

-0.5 40.5 xlo xhi
-0.5 40.5 ylo yhi
-0.5 40.5 zlo zhi

Masses

1 12.01
2 12.01
3 12.01
4 12.01
5 12.01
6 12.01
7 12.01
8 12.01
9 12.01
10 12.01
11 12.01
12 12.01
13 12.01
14 12.01
15 12.01
16 12.01
17 12.01
18 12.01
19 12.01
20 1.008
21 1.008
22 1.008
23 1.008
24 1.008
25 1.008
26 1.008
27 1.008
28 1.008
29 1.008
30 1.008
31 1.008
32 1.008
33 19.00
34 35.45
35 79.90
36 126.9
37 14.01
38 14.01
39 14.01
40 14.01
41 14.01
42 14.01
43 14.01
44 14.01
45 14.01
46 14.01
47 14.01
48 14.01
49 14.01
50 14.01
51 14.01
52 14.01
53 14.01
54 14.01
55 14.01
56 14.01
57 14.01
58 14.01
59 14.01
60 14.01
61 16.00
62 16.00
63 16.00
64 16.00
65 30.97
66 30.97
67 30.97
68 30.97
69 30.97
70 30.97
71 30.97
72 30.97
73 30.97
74 30.97
75 30.97
76 32.06
77 32.06
78 32.06
79 32.06
80 32.06
81 32.06
82 32.06
83 32.06
84 6.94
85 39.10
86 22.99
87 35.45
88 19.00
89 79.90
90 126.9

Atoms

1 1 5 -0.059333 2.827467 31.741779 29.924439
2 1 26 0.025278 2.291684 30.828219 30.224797
3 1 26 0.025278 3.038696 31.692522 28.846756
4 1 5 0.017574 4.133354 31.877602 30.739049
5 1 26 0.042065 3.837368 31.817118 31.796980
6 1 6 0.052049 4.755913 33.251667 30.460838
7 1 6 -0.170647 5.087977 33.656598 29.164997
8 1 25 0.147743 5.015344 32.953537 28.343325
9 1 6 -0.144067 5.519201 34.959674 28.907198
10 1 25 0.145343 5.790652 35.210202 27.893295
11 1 6 0.014967 5.601831 35.902589 29.938498
12 1 41 0.105271 6.418844 38.062701 28.583604
13 1 6 -0.144067 5.241058 35.495951 31.225458
14 1 25 0.145343 5.329276 36.187566 32.055137
15 1 6 -0.170647 4.818120 34.192960 31.487984
16 1 25 0.147743 4.539338 33.921259 32.499253
17 1 5 -0.152902 5.190025 38.087043 27.757514
18 1 5 -0.152902 6.715105 39.462382 28.986006
19 1 5 -0.152902 7.588376 37.597655 27.800669
20 1 32 0.122237 5.182481 38.979588 27.112844
21 1 32 0.122237 5.124432 37.205884 27.105304
22 1 32 0.122237 4.300312 38.117287 28.404500
23 1 32 0.122237 7.494618 39.485411 29.763835
24 1 32 0.122237 7.070599 40.057763 28.132747
25 1 32 0.122237 5.813220 39.949957 29.387713
26 1 32 0.122237 7.510190 36.536591 27.534775
27 1 32 0.122237 8.517301 37.734820 28.376894
28 1 32 0.122237 7.673349 38.176138 26.868058
29 1 5 -0.191827 5.097326 30.701215 30.434322
30 1 26 0.07589 4.466804 29.801970 30.363917
31 1 26 0.07589 5.597969 30.849073 29.467747
32 1 5 0.029093 6.132276 30.462919 31.568853
33 1 26 0.062746 5.546273 30.339810 32.491665
34 1 6 0.069132 7.057266 31.681990 31.716859
35 1 6 -0.188642 7.910056 32.079008 30.685290
36 1 25 0.158696 7.936259 31.521138 29.756263
37 1 6 -0.144247 8.818963 33.122181 30.876309
38 1 25 0.145981 9.587272 33.265954 30.129259
39 1 6 0.021854 8.819892 33.883939 32.049474
40 1 41 0.111083 10.712557 35.731909 31.903601
41 1 6 -0.144247 7.834117 33.594176 32.998258
42 1 25 0.145981 7.797966 34.149790 33.928686
43 1 6 -0.188642 7.006141 32.476214 32.863903
44 1 25 0.158696 6.340094 32.210099 33.676144
45 1 5 -0.145615 10.933399 35.553741 30.450829
46 1 5 -0.145615 9.891177 36.941056 32.127852
47 1 5 -0.145615 12.032389 35.970214 32.537443
48 1 32 0.119389 11.549174 36.372710 30.050014
49 1 32 0.119389 11.460895 34.608002 30.259302
50 1 32 0.119389 9.974655 35.555878 29.911464
51 1 32 0.119389 9.792205 37.161499 33.201137
52 1 32 0.119389 10.346448 37.813604 31.632953
53 1 32 0.119389 8.888511 36.785077 31.714480
54 1 32 0.119389 12.713308 35.127460 32.341249
55 1 32 0.119389 11.925744 36.081168 33.627640
56 1 32 0.119389 12.501260 36.886059 32.146782
57 1 5 -0.039984 6.906858 29.131273 31.323278
58 1 26 0.036787 6.226973 28.474219 30.764577
59 1 26 0.036787 7.785831 29.301932 30.687263
60 1 5 0.016149 7.278777 28.349771 32.620792
61 1 26 0.038148 6.388426 28.361059 33.266276
62 1 6 0.044888 8.457786 28.980986 33.374259
63 1 6 -0.190369 9.670793 29.255554 32.739792
64 1 25 0.159991 9.831063 28.955939 31.710908
65 1 6 -0.158939 10.650486 30.011201 33.388288
66 1 25 0.153495 11.495957 30.374726 32.816416
67 1 6 0.031111 10.487916 30.400171 34.720484
68 1 41 0.076258 12.555318 31.571729 35.744719
69 1 6 -0.158939 9.365053 29.936000 35.410654
70 1 25 0.153495 9.223762 30.198263 36.453488
71 1 6 -0.190369 8.328595 29.299168 34.728136
72 1 25 0.159991 7.406306 29.078818 35.252038
73 1 5 -0.121802 13.550433 31.602887 34.645631
74 1 5 -0.121802 12.798273 32.747785 36.615131
75 1 5 -0.121802 12.741808 30.339112 36.540739
76 1 32 0.112047 14.572411 31.641446 35.052021
77 1 32 0.112047 13.470146 30.700630 34.023586
78 1 32 0.112047 13.403723 32.486313 34.006022
79 1 32 0.112047 12.188005 32.686939 37.529427
80 1 32 0.112047 13.854287 32.815221 36.915618
81 1 32 0.112047 12.531738 33.671839 36.078868
82 1 32 0.112047 12.700776 29.447074 35.896233
83 1 32 0.112047 11.956894 30.256664 37.306483
84 1 32 0.112047 13.721928 30.360906 37.041981
85 1 5 -0.131557 7.556012 26.853287 32.305834
86 1 26 0.04685 6.711686 26.488485 31.701772
87 1 26 0.04685 8.471680 26.754567 31.705777
88 1 5 0.090687 7.618397 25.949532 33.570602
89 1 26 0.002914 6.795815 26.244122 34.238365
90 1 6 0.060497 8.957825 26.119279 34.310344
91 1 6 -0.112341 10.164704 25.758300 33.706140
92 1 25 0.08427 10.178840 25.416433 32.677992
93 1 6 -0.122522 11.348997 25.721464 34.447169
94 1 25 0.113929 12.257488 25.367471 33.972643
95 1 6 -0.020369 11.350387 26.045553 35.806230
96 1 5 -0.22158 12.629765 25.901443 36.645713
97 1 6 -0.122522 10.178054 26.556201 36.367054
98 1 25 0.113929 10.170502 26.878439 37.401786
99 1 6 -0.112341 8.987500 26.561464 35.635667
100 1 25 0.08427 8.067919 26.842806 36.134334
101 1 26 0.082969 12.885555 26.897360 37.038551
102 1 5 0.02736 12.505671 24.922282 37.845436
103 1 26 0.021447 11.725144 25.281122 38.532677
104 1 26 0.021447 13.464445 24.925453 38.385710
105 1 5 -0.089133 7.343823 24.465252 33.177409
106 1 26 0.037526 6.378840 24.416037 32.650968
107 1 26 0.037526 8.125264 24.112032 32.491427
108 1 5 0.023193 7.220400 23.516053 34.400171
109 1 26 0.027126 6.406972 23.890457 35.039440
110 1 6 -0.036045 8.526899 23.510217 35.179449
111 1 6 -0.096426 9.702909 23.069058 34.570296
112 1 25 0.100733 9.707593 22.742440 33.538132
113 1 6 -0.105371 10.891633 23.038011 35.294989
114 1 25 0.108496 11.802349 22.699147 34.815654
115 1 6 -0.029515 10.899880 23.448184 36.628624
116 1 5 0.004914 12.212565 23.467923 37.398073
117 1 6 -0.105371 9.718280 23.865179 37.244839
118 1 25 0.108496 9.706912 24.161568 38.286518
119 1 6 -0.096426 8.529599 23.896915 36.519423
120 1 25 0.100733 7.615184 24.216615 37.005167
121 1 26 0.058619 13.035027 23.143255 36.743126
122 1 5 -0.077808 12.126468 22.475000 38.585595
123 1 26 0.029514 11.352240 22.793612 39.298489
124 1 26 0.029514 13.097187 22.488723 39.103465
125 1 5 -0.11903 6.873950 22.056877 34.000297
126 1 26 0.036337 5.908091 22.076689 33.474569
127 1 26 0.036337 7.631205 21.657710 33.310576
128 1 5 0.166712 6.735539 21.111688 35.228741
129 1 26 0.002584 5.970438 21.541051 35.894222
130 1 6 -0.000196 8.038707 20.920276 36.024616
131 1 6 -0.168982 9.187126 20.397746 35.426164
132 1 25 0.126105 9.169001 20.087250 34.388628
133 1 6 -0.151484 10.395667 20.359516 36.127242
134 1 25 0.127128 11.289889 20.018471 35.617196
135 1 6 0.001352 10.477127 20.851057 37.432187
136 1 5 0.110187 11.845204 21.019889 38.114733
137 1 6 -0.151484 9.289794 21.184494 38.088740
138 1 25 0.127128 9.309306 21.497646 39.126123
139 1 6 -0.168982 8.080581 21.215315 37.390242
140 1 25 0.126105 7.184682 21.544263 37.903871
141 1 26 0.031579 12.637355 20.741353 37.403758
142 1 5 -0.193175 11.940829 20.043882 39.308559
143 1 26 0.053846 11.743518 19.019896 38.958854
144 1 26 0.053846 12.950691 20.083678 39.744423
145 1 26 0.025278 2.183272 32.610204 30.127934
146 1 26 0.082969 13.455829 25.560625 36.004631
147 1 5 -0.191918 6.223638 19.725131 34.778874
148 1 26 0.053846 11.206767 20.306699 40.084075
149 1 5 -0.098505 6.249507 37.295616 29.845705
150 1 32 0.123379 7.245747 37.161458 30.282354
151 1 32 0.123379 5.666942 37.925453 30.534754
152 1 5 -0.155445 10.125377 34.528287 32.554924
153 1 32 0.144952 10.869270 33.721521 32.496295
154 1 32 0.144952 9.981014 34.769259 33.618764
155 1 5 -0.248687 11.167202 31.679549 35.226254
156 1 32 0.173263 10.520926 32.091259 36.016137
157 1 32 0.173263 11.144087 32.393656 34.394162
158 1 26 0.050315 6.917623 19.271701 34.057177
159 1 26 0.050315 5.233939 19.825265 34.307459
160 1 26 0.050315 6.136588 19.067006 35.656260
161 2 5 -0.059333 19.416928 27.219026 26.668339
162 2 26 0.025278 20.365879 27.296522 27.220929
163 2 26 0.025278 18.639382 27.769004 27.217331
164 2 5 0.017574 19.027944 25.733558 26.496721
165 2 26 0.042065 19.897927 25.244867 26.033263
166 2 6 0.052049 17.824377 25.637670 25.550535
167 2 6 -0.170647 16.624963 26.302140 25.821320
168 2 25 0.147743 16.488663 26.806874 26.770730
169 2 6 -0.144067 15.588433 26.324801 24.885631
170 2 25 0.145343 14.673277 26.827416 25.158243
171 2 6 0.014967 15.736927 25.705527 23.639057
172 2 41 0.105271 13.380415 26.280830 22.505385
173 2 6 -0.144067 16.949881 25.067914 23.367085
174 2 25 0.145343 17.086527 24.544872 22.427811
175 2 6 -0.170647 17.984029 25.036018 24.302554
176 2 25 0.147743 18.912016 24.537785 24.047975
177 2 5 -0.152902 13.639198 27.737947 22.558817
178 2 5 -0.152902 12.793000 25.979383 21.173890
179 2 5 -0.152902 12.368716 25.873509 23.509186
180 2 32 0.122237 12.832326 28.286706 22.048803
181 2 32 0.122237 13.685620 28.102103 23.593880
182 2 32 0.122237 14.590366 27.971444 22.056967
183 2 32 0.122237 12.767907 24.892302 20.998347
184 2 32 0.122237 11.764112 26.358905 21.094783
185 2 32 0.122237 13.388581 26.443971 20.372682
186 2 32 0.122237 12.745214 25.967988 24.534853
187 2 32 0.122237 12.071247 24.824296 23.352937
188 2 32 0.122237 11.470466 26.503124 23.417762
189 2 5 -0.191827 18.771727 25.068707 27.874515
190 2 26 0.07589 19.545061 25.463187 28.550900
191 2 26 0.07589 17.787745 25.357262 28.268581
192 2 5 0.029093 18.925812 23.522851 27.833860
193 2 26 0.062746 19.925515 23.329531 27.417498
194 2 6 0.069132 17.865315 22.901449 26.910360
195 2 6 -0.188642 16.502095 23.005484 27.192879
196 2 25 0.158696 16.169433 23.527208 28.082900
197 2 6 -0.144247 15.559830 22.344472 26.401672
198 2 25 0.145981 14.543382 22.289623 26.766200
199 2 6 0.021854 15.931780 21.668023 25.235198
200 2 41 0.111083 13.783725 20.608474 24.103091
201 2 6 -0.144247 17.278665 21.731017 24.863931
202 2 25 0.145981 17.619557 21.215421 23.973054
203 2 6 -0.188642 18.239162 22.284978 25.714819
204 2 25 0.158696 19.287570 22.205148 25.452833
205 2 5 -0.145615 12.827893 21.382435 24.926761
206 2 5 -0.145615 13.884441 21.225484 22.762888
207 2 5 -0.145615 13.226702 19.245645 23.921641
208 2 32 0.119389 11.809813 21.299861 24.517815
209 2 32 0.119389 12.812176 20.995420 25.955998
210 2 32 0.119389 13.102606 22.447566 24.938505
211 2 32 0.119389 14.508704 20.617920 22.090956
212 2 32 0.119389 12.885372 21.330704 22.310861
213 2 32 0.119389 14.338134 22.219041 22.849785
214 2 32 0.119389 13.062956 18.761873 24.897104
215 2 32 0.119389 13.916979 18.618218 23.336775
216 2 32 0.119389 12.263383 19.277580 23.390391
217 2 5 -0.039984 18.898353 22.938455 29.279991
218 2 26 0.036787 19.289101 23.723967 29.940594
219 2 26 0.036787 17.867788 22.731971 29.598635
220 2 5 0.016149 19.825873 21.703461 29.497034
221 2 26 0.038148 20.785293 21.935938 29.012297
222 2 6 0.044888 19.250377 20.417075 28.888576
223 2 6 -0.190369 17.960453 19.976420 29.190637
224 2 25 0.159991 17.361341 20.498970 29.926888
225 2 6 -0.158939 17.389097 18.922984 28.472881
226 2 25 0.153495 16.330185 18.724120 28.587632
227 2 6 0.031111 18.135793 18.213319 27.528797
228 2 41 0.076258 16.913128 16.162448 26.531413
229 2 6 -0.158939 19.490650 18.525704 27.389552
230 2 25 0.153495 20.103618 17.975016 26.684384
231 2 6 -0.190369 20.022037 19.659140 28.004841
232 2 25 0.159991 21.033823 19.965232 27.767687
233 2 5 -0.121802 15.587114 16.158028 27.195406
234 2 5 -0.121802 16.752391 15.561660 25.184947
235 2 5 -0.121802 17.857292 15.336862 27.315461
236 2 32 0.112047 15.171192 15.139430 27.218761
237 2 32 0.112047 15.671284 16.510332 28.232831
238 2 32 0.112047 14.876005 16.805055 26.659918
239 2 32 0.112047 17.733424 15.400057 24.712164
240 2 32 0.112047 16.236015 14.591718 25.235681
241 2 32 0.112047 16.162483 16.234207 24.542932
242 2 32 0.112047 17.897908 15.676354 28.362313
243 2 32 0.112047 18.867454 15.399656 26.885486
244 2 32 0.112047 17.534355 14.284280 27.303759
245 2 5 -0.131557 20.147802 21.510744 31.005259
246 2 26 0.04685 20.479695 22.486029 31.391943
247 2 26 0.04685 19.240852 21.218072 31.553024
248 2 5 0.090687 21.308325 20.510042 31.273749
249 2 26 0.002914 22.107317 20.714857 30.546428
250 2 6 0.060497 20.836049 19.053738 31.111776
251 2 6 -0.112341 19.862929 18.514305 31.956747
252 2 25 0.08427 19.376673 19.138786 32.696841
253 2 6 -0.122522 19.585639 17.144679 31.940419
254 2 25 0.113929 18.879014 16.740860 32.656975
255 2 6 -0.020369 20.274810 16.287626 31.078685
256 2 5 -0.22158 20.047629 14.768607 31.135931
257 2 6 -0.122522 21.129884 16.849835 30.128727
258 2 25 0.113929 21.625114 16.213565 29.404522
259 2 6 -0.112341 21.431728 18.213573 30.167224
260 2 25 0.08427 22.193952 18.600102 29.501597
261 2 26 0.082969 19.666922 14.450461 30.153360
262 2 5 0.02736 21.321323 13.938784 31.456223
263 2 26 0.021447 22.075895 14.108076 30.673758
264 2 26 0.021447 21.044695 12.873726 31.439446
265 2 5 -0.089133 21.926815 20.778292 32.680372
266 2 26 0.037526 22.237253 21.832757 32.730235
267 2 26 0.037526 21.169840 20.608230 33.457581
268 2 5 0.023193 23.200456 19.936669 32.964751
269 2 26 0.027126 23.939072 20.164021 32.181638
270 2 6 -0.036045 22.854819 18.455541 32.932483
271 2 6 -0.096426 21.935368 17.931674 33.842901
272 2 25 0.100733 21.445575 18.567791 34.569208
273 2 6 -0.105371 21.642486 16.570334 33.829444
274 2 25 0.108496 20.924470 16.170034 34.535281
275 2 6 -0.029515 22.271734 15.736307 32.904599
276 2 5 0.004914 21.904252 14.260459 32.855481
277 2 6 -0.105371 23.210288 16.256467 32.011102
278 2 25 0.108496 23.724202 15.615036 31.305746
279 2 6 -0.096426 23.502376 17.618344 32.024273
280 2 25 0.100733 24.235575 18.014628 31.331678
281 2 26 0.058619 21.127183 14.043317 33.603693
282 2 5 -0.077808 23.152637 13.408829 33.201577
283 2 26 0.029514 23.937685 13.551235 32.444886
284 2 26 0.029514 22.849686 12.351141 33.187763
285 2 5 -0.11903 23.848860 20.265724 34.336034
286 2 26 0.036337 24.128341 21.329412 34.324883
287 2 26 0.036337 23.126209 20.109979 35.149669
288 2 5 0.166712 25.133678 19.431943 34.611109
289 2 26 0.002584 25.832352 19.613468 33.779544
290 2 6 -0.000196 24.886323 17.917980 34.733719
291 2 6 -0.168982 24.028683 17.396757 35.704713
292 2 25 0.126105 23.542598 18.055388 36.414039
293 2 6 -0.151484 23.711938 16.035447 35.712054
294 2 25 0.127128 22.986428 15.667350 36.429152
295 2 6 0.001352 24.239273 15.176967 34.744553
296 2 5 0.110187 23.713865 13.737193 34.614151
297 2 6 -0.151484 25.245084 15.663742 33.905865
298 2 25 0.127128 25.728965 15.004536 33.194588
299 2 6 -0.168982 25.567279 17.022871 33.903771
300 2 25 0.126105 26.301671 17.388253 33.195376
301 2 26 0.031579 22.900065 13.585531 35.338925
302 2 5 -0.193175 24.842866 12.749366 34.983628
303 2 26 0.053846 25.226075 12.992117 35.985624
304 2 26 0.053846 24.452287 11.720396 34.990639
305 2 26 0.025278 19.549972 27.674206 25.675530
306 2 26 0.082969 19.284316 14.537521 31.893216
307 2 5 -0.191918 25.822676 19.925793 35.902757
308 2 26 0.053846 25.666934 12.813386 34.258261
309 2 5 -0.098505 14.623238 25.470987 22.603052
310 2 32 0.123379 14.322325 24.428761 22.759162
311 2 32 0.123379 15.127711 25.528358 21.626793
312 2 5 -0.155445 15.116546 20.453893 24.749155
313 2 32 0.144952 14.981166 19.837368 25.648742
314 2 32 0.144952 15.754306 19.888796 24.053029
315 2 5 -0.248687 17.424623 17.544809 26.345001
316 2 32 0.173263 18.132875 17.553994 25.502750
317 2 32 0.173263 16.594395 18.205593 26.067613
318 2 26 0.050315 25.145575 19.830816 36.763323
319 2 26 0.050315 26.113694 20.981712 35.792730
320 2 26 0.050315 26.724978 19.323785 36.087018
321 3 5 -0.059333 34.097502 13.049652 15.987154
322 3 26 0.025278 35.090274 13.382139 15.646970
323 3 26 0.025278 33.834503 12.119926 15.462858
324 3 5 0.017574 33.051288 14.153684 15.715256
325 3 26 0.042065 33.443864 15.065541 16.189476
326 3 6 0.052049 31.726042 13.761966 16.381075
327 3 6 -0.170647 31.079818 12.560864 16.075811
328 3 25 0.147743 31.451139 11.936051 15.271793
329 3 6 -0.144067 29.952777 12.148979 16.790340
330 3 25 0.145343 29.475812 11.227670 16.493451
331 3 6 0.014967 29.458891 12.916950 17.851374
332 3 41 0.105271 27.404447 11.401290 18.658446
333 3 6 -0.144067 30.128386 14.101884 18.166788
334 3 25 0.145343 29.751896 14.741256 18.956687
335 3 6 -0.170647 31.249185 14.520540 17.449768
336 3 25 0.147743 31.743967 15.442104 17.732818
337 3 5 -0.152902 28.294870 10.272377 19.013013
338 3 5 -0.152902 26.404866 11.542225 19.749217
339 3 5 -0.152902 26.636103 11.117406 17.423084
340 3 32 0.122237 27.716391 9.467453 19.492337
341 3 32 0.122237 28.781679 9.847738 18.124858
342 3 32 0.122237 29.070986 10.609814 19.716486
343 3 32 0.122237 25.846180 12.485569 19.643576
344 3 32 0.122237 25.679513 10.716016 19.737025
345 3 32 0.122237 26.900783 11.543896 20.732353
346 3 32 0.122237 27.279509 11.089303 16.535442
347 3 32 0.122237 25.868236 11.890497 17.260416
348 3 32 0.122237 26.130978 10.143054 17.507417
349 3 5 -0.191827 32.911575 14.417057 14.193053
350 3 26 0.07589 33.931653 14.374160 13.782251
351 3 26 0.07589 32.313024 13.629407 13.715437
352 3 5 0.029093 32.335630 15.825445 13.877148
353 3 26 0.062746 32.984303 16.542086 14.402300
354 3 6 0.069132 30.901669 15.952769 14.416769
355 3 6 -0.188642 29.867184 15.149739 13.933043
356 3 25 0.158696 30.062988 14.420607 13.155210
357 3 6 -0.144247 28.552114 15.352479 14.357658
358 3 25 0.145981 27.763316 14.847259 13.817653
359 3 6 0.021854 28.244357 16.270003 15.367622
360 3 41 0.111083 25.631687 16.260583 15.806160
361 3 6 -0.144247 29.315834 16.933178 15.974288
362 3 25 0.145981 29.129548 17.661250 16.755900
363 3 6 -0.188642 30.614559 16.823561 15.469578
364 3 25 0.158696 31.397985 17.446831 15.884243
365 3 5 -0.145615 25.393184 15.014250 15.044037
366 3 5 -0.145615 25.627993 15.956148 17.253328
367 3 5 -0.145615 24.495154 17.177224 15.544311
368 3 32 0.119389 24.378707 14.633036 15.233912
369 3 32 0.119389 25.487485 15.204135 13.964959
370 3 32 0.119389 26.109301 14.235075 15.344320
371 3 32 0.119389 25.701123 16.875242 17.853536
372 3 32 0.119389 24.702401 15.428844 17.533985
373 3 32 0.119389 26.484600 15.317442 17.495863
374 3 32 0.119389 24.405362 17.383666 14.466491
375 3 32 0.119389 24.639296 18.134768 16.068283
376 3 32 0.119389 23.545268 16.740907 15.888656
377 3 5 -0.039984 32.445277 16.124431 12.350010
378 3 26 0.036787 33.311852 15.558075 11.983406
379 3 26 0.036787 31.563664 15.748320 11.813788
380 3 5 0.016149 32.737204 17.616414 12.001620
381 3 26 0.038148 33.524561 17.956588 12.689989
382 3 6 0.044888 31.502442 18.514054 12.162275
383 3 6 -0.190369 30.290445 18.212288 11.538317
384 3 25 0.159991 30.218042 17.370237 10.860257
385 3 6 -0.158939 29.134120 18.926354 11.861382
386 3 25 0.153495 28.176008 18.556259 11.516329
387 3 6 0.031111 29.190831 20.029400 12.717271
388 3 41 0.076258 26.955409 21.312553 12.945666
389 3 6 -0.158939 30.444870 20.452215 13.165851
390 3 25 0.153495 30.524898 21.321234 13.809784
391 3 6 -0.190369 31.575171 19.663036 12.953138
392 3 25 0.159991 32.507971 19.933701 13.433003
393 3 5 -0.121802 26.008197 20.571241 12.078217
394 3 5 -0.121802 26.179655 21.924171 14.051958
395 3 5 -0.121802 27.601026 22.387412 12.161048
396 3 32 0.112047 25.202615 21.235789 11.731099
397 3 32 0.112047 26.522402 20.175207 11.191536
398 3 32 0.112047 25.548366 19.732864 12.622959
399 3 32 0.112047 26.811283 22.611694 14.635416
400 3 32 0.112047 25.318088 22.493513 13.673066
401 3 32 0.112047 25.805154 21.137984 14.725866
402 3 32 0.112047 28.075027 21.979514 11.254545
403 3 32 0.112047 28.370135 22.891241 12.764270
404 3 32 0.112047 26.849580 23.131869 11.855325
405 3 5 -0.131557 33.337110 17.744646 10.573618
406 3 26 0.04685 34.164065 17.021992 10.504522
407 3 26 0.04685 32.584517 17.473949 9.819572
408 3 5 0.090687 33.946621 19.144542 10.275132
409 3 26 0.002914 34.518741 19.460484 11.159548
410 3 6 0.060497 32.845381 20.180932 9.986571
411 3 6 -0.112341 32.006870 20.050319 8.876722
412 3 25 0.08427 32.077319 19.176328 8.240061
413 3 6 -0.122522 31.150256 21.090116 8.505146
414 3 25 0.113929 30.564126 20.992216 7.598114
415 3 6 -0.020369 31.114286 22.280327 9.236029
416 3 5 -0.22158 30.253170 23.463594 8.766281
417 3 6 -0.122522 31.833965 22.346495 10.430740
418 3 25 0.113929 31.770187 23.232984 11.050929
419 3 6 -0.112341 32.714868 21.321046 10.784063
420 3 25 0.08427 33.354420 21.454737 11.648094
421 3 26 0.082969 29.517318 23.675919 9.556876
422 3 5 0.02736 31.049969 24.766275 8.480580
423 3 26 0.021447 31.553243 25.097848 9.400940
424 3 26 0.021447 30.330879 25.545096 8.184773
425 3 5 -0.089133 34.978247 19.037713 9.110051
426 3 26 0.037526 35.730366 18.280449 9.377674
427 3 26 0.037526 34.471143 18.706294 8.194085
428 3 5 0.023193 35.759853 20.355184 8.855646
429 3 26 0.027126 36.275521 20.629095 9.788152
430 3 6 -0.036045 34.790597 21.458813 8.459678
431 3 6 -0.096426 34.022630 21.332942 7.300769
432 3 25 0.100733 34.091535 20.449009 6.679496
433 3 6 -0.105371 33.157280 22.357512 6.925758
434 3 25 0.108496 32.560117 22.252337 6.027800
435 3 6 -0.029515 33.063459 23.506452 7.711904
436 3 5 0.004914 32.073398 24.596905 7.329446
437 3 6 -0.105371 33.850628 23.642779 8.857140
438 3 25 0.108496 33.805570 24.540513 9.461387
439 3 6 -0.096426 34.715467 22.617392 9.232416
440 3 25 0.100733 35.327353 22.731822 10.119440
441 3 26 0.058619 31.520084 24.299698 6.425941
442 3 5 -0.077808 32.845935 25.902362 7.009311
443 3 26 0.029514 33.370071 26.268773 7.903842
444 3 26 0.029514 32.108601 26.661401 6.707861
445 3 5 -0.11903 36.834594 20.215643 7.744528
446 3 26 0.036337 37.547845 19.443063 8.067112
447 3 26 0.036337 36.373084 19.884222 6.803438
448 3 5 0.166712 37.626683 21.533149 7.502896
449 3 26 0.002584 38.074508 21.832884 8.463213
450 3 6 -0.000196 36.768597 22.693525 6.968558
451 3 6 -0.168982 36.070945 22.588163 5.763474
452 3 25 0.126105 36.148484 21.688969 5.164596
453 3 6 -0.151484 35.191021 23.598143 5.364447
454 3 25 0.127128 34.605067 23.460141 4.462393
455 3 6 0.001352 34.987891 24.723037 6.167241
456 3 5 0.110187 33.857577 25.714738 5.843316
457 3 6 -0.151484 35.832208 24.914249 7.263858
458 3 25 0.127128 35.752002 25.813097 7.864064
459 3 6 -0.168982 36.717220 23.908162 7.658307
460 3 25 0.126105 37.311885 24.051767 8.552962
461 3 26 0.031579 33.296097 25.346164 4.971844
462 3 5 -0.193175 34.473745 27.074744 5.446227
463 3 26 0.053846 35.183109 26.925825 4.618943
464 3 26 0.053846 33.680559 27.762911 5.116586
465 3 26 0.025278 34.143579 12.854768 17.069030
466 3 26 0.082969 29.707757 23.183999 7.853112
467 3 5 -0.191918 38.788293 21.282746 6.515513
468 3 26 0.053846 35.004342 27.523704 6.298428
469 3 5 -0.098505 28.123034 12.700574 18.584371
470 3 32 0.123379 27.440924 13.425163 18.125185
471 3 32 0.123379 28.310291 13.029326 19.617677
472 3 5 -0.155445 26.871873 16.970615 15.387233
473 3 32 0.144952 26.725661 17.314972 14.353924
474 3 32 0.144952 26.968964 17.863127 16.023361
475 3 5 -0.248687 27.961298 20.404592 13.554840
476 3 32 0.173263 28.336768 20.858371 14.484463
477 3 32 0.173263 27.477092 19.461554 13.836055
478 3 26 0.050315 38.405700 20.915664 5.552739
479 3 26 0.050315 39.480775 20.535475 6.932426
480 3 26 0.050315 39.334709 22.223295 6.350253
481 4 5 -0.059333 28.260532 18.422028 28.727087
482 4 26 0.025278 27.285393 18.840879 28.434616
483 4 26 0.025278 28.306699 18.359629 29.823636
484 4 5 0.017574 29.400225 19.306855 28.174313
485 4 26 0.042065 29.217214 19.394915 27.093001
486 4 6 0.052049 30.741196 18.600007 28.409257
487 4 6 -0.170647 31.156630 18.224067 29.689695
488 4 25 0.147743 30.583517 18.532180 30.556483
489 4 6 -0.144067 32.308149 17.455992 29.875402
490 4 25 0.145343 32.599054 17.219006 30.887163
491 4 6 0.014967 33.060202 17.018419 28.778842
492 4 41 0.105271 34.975933 15.610006 30.009972
493 4 6 -0.144067 32.621229 17.375878 27.501618
494 4 25 0.145343 33.199346 17.087796 26.631406
495 4 6 -0.170647 31.476404 18.150057 27.312924
496 4 25 0.147743 31.166023 18.397859 26.304725
497 4 5 -0.152902 33.997552 14.650076 30.570614
498 4 5 -0.152902 36.137997 14.826679 29.515187
499 4 5 -0.152902 35.501397 16.520103 31.055281
500 4 32 0.122237 34.521100 13.835205 31.094232
501 4 32 0.122237 33.327271 15.132980 31.294250
502 4 32 0.122237 33.392085 14.212341 29.762596
503 4 32 0.122237 36.802880 15.461034 28.907969
504 4 32 0.122237 36.728265 14.416751 30.347322
505 4 32 0.122237 35.800966 13.984467 28.891022
506 4 32 0.122237 34.734400 17.213407 31.420948
507 4 32 0.122237 36.338130 17.118286 30.660560
508 4 32 0.122237 35.869656 15.937572 31.913576
509 4 5 -0.191827 29.345378 20.727121 28.795461
510 4 26 0.07589 28.279502 20.996798 28.843813
511 4 26 0.07589 29.747060 20.720189 29.817898
512 4 5 0.029093 30.061670 21.793608 27.921050
513 4 26 0.062746 29.608002 21.719415 26.921641
514 4 6 0.069132 31.563851 21.482968 27.818088
515 4 6 -0.188642 32.388913 21.493616 28.944218
516 4 25 0.158696 31.976612 21.730903 29.918230
517 4 6 -0.144247 33.768206 21.314628 28.816452
518 4 25 0.145981 34.386804 21.524356 29.678082
519 4 6 0.021854 34.351755 20.993018 27.586562
520 4 41 0.111083 36.972445 20.747982 27.887218
521 4 6 -0.144247 33.489103 20.801128 26.502627
522 4 25 0.145981 33.892509 20.559650 25.525559
523 4 6 -0.188642 32.126998 21.098927 26.599689
524 4 25 0.158696 31.511593 21.058914 25.708710
525 4 5 -0.145615 36.913829 20.708255 29.365747
526 4 5 -0.145615 37.150462 19.374530 27.368635
527 4 5 -0.145615 38.175355 21.525588 27.501422
528 4 32 0.119389 37.880658 20.388875 29.782615
529 4 32 0.119389 36.686248 21.707527 29.764520
530 4 32 0.119389 36.147561 19.994528 29.702699
531 4 32 0.119389 37.299957 19.376941 26.278692
532 4 32 0.119389 38.023207 18.894779 27.839478
533 4 32 0.119389 36.258044 18.779523 27.592471
534 4 32 0.119389 38.130422 22.541779 27.922982
535 4 32 0.119389 38.249378 21.609289 26.406101
536 4 32 0.119389 39.094392 21.044034 27.868445
537 4 5 -0.039984 29.767190 23.225609 28.465312
538 4 26 0.036787 28.783674 23.177586 28.951625
539 4 26 0.036787 30.495527 23.507742 29.237427
540 4 5 0.016149 29.641420 24.323477 27.364641
541 4 26 0.038148 29.023073 23.899296 26.560141
542 4 6 0.044888 31.001289 24.743251 26.789530
543 4 6 -0.190369 32.050227 25.155320 27.613697
544 4 25 0.159991 31.899269 25.260175 28.681533
545 4 6 -0.158939 33.331677 25.334892 27.087400
546 4 25 0.153495 34.164471 25.464706 27.768292
547 4 6 0.031111 33.561869 25.226318 25.713465
548 4 41 0.076258 35.965747 25.850033 24.986755
549 4 6 -0.158939 32.462635 25.025035 24.874548
550 4 25 0.153495 32.604836 24.963102 23.801147
551 4 6 -0.190369 31.212562 24.713390 25.409173
552 4 25 0.159991 30.410669 24.417697 24.743457
553 4 5 -0.121802 36.656480 26.210245 26.248640
554 4 5 -0.121802 36.978126 25.302199 24.051491
555 4 5 -0.121802 35.368987 27.064734 24.389972
556 4 32 0.112047 37.486921 26.904182 26.048900
557 4 32 0.112047 35.963687 26.706356 26.942446
558 4 32 0.112047 37.069033 25.316733 26.741085
559 4 32 0.112047 36.545763 25.164202 23.048454
560 4 32 0.112047 37.845015 25.972879 23.958234
561 4 32 0.112047 37.334055 24.325684 24.415122
562 4 32 0.112047 34.710858 27.572763 25.112174
563 4 32 0.112047 34.778964 26.802505 23.499826
564 4 32 0.112047 36.164060 27.765574 24.091583
565 4 5 -0.131557 28.857928 25.555267 27.897889
566 4 26 0.04685 27.935696 25.175155 28.362499
567 4 26 0.04685 29.442267 26.070766 28.673176
568 4 5 0.090687 28.415863 26.545572 26.782461
569 4 26 0.002914 28.034136 25.955019 25.936964
570 4 6 0.060497 29.597261 27.409682 26.305269
571 4 6 -0.112341 30.232058 28.302958 27.171882
572 4 25 0.08427 29.943027 28.348857 28.215202
573 4 6 -0.122522 31.162127 29.226363 26.686778
574 4 25 0.113929 31.585177 29.956503 27.367781
575 4 6 -0.020369 31.476585 29.274416 25.326303
576 4 5 -0.22158 32.416699 30.358852 24.776314
577 4 6 -0.122522 30.961645 28.280647 24.491491
578 4 25 0.113929 31.243449 28.255034 23.445310
579 4 6 -0.112341 30.007108 27.379184 24.969610
580 4 25 0.08427 29.530417 26.702020 24.271282
581 4 26 0.082969 33.285747 29.852309 24.329357
582 4 5 0.02736 31.779499 31.275966 23.696329
583 4 26 0.021447 31.472756 30.667378 22.832721
584 4 26 0.021447 32.549298 31.985911 23.357886
585 4 5 -0.089133 27.216121 27.408064 27.282265
586 4 26 0.037526 26.412835 26.731889 27.611316
587 4 26 0.037526 27.527293 28.013259 28.144179
588 4 5 0.023193 26.600596 28.307972 26.176528
589 4 26 0.027126 26.275353 27.656914 25.351392
590 4 6 -0.036045 27.646278 29.292270 25.674579
591 4 6 -0.096426 28.205352 30.225649 26.549180
592 4 25 0.100733 27.918733 30.253325 27.592802
593 4 6 -0.105371 29.141286 31.143953 26.080186
594 4 25 0.108496 29.575459 31.863055 26.764569
595 4 6 -0.029515 29.514783 31.126007 24.735913
596 4 5 0.004914 30.580978 32.092792 24.241806
597 4 6 -0.105371 28.936353 30.208857 23.856118
598 4 25 0.108496 29.199044 30.201822 22.805397
599 4 6 -0.096426 28.000844 29.289907 24.325745
600 4 25 0.100733 27.551938 28.584306 23.636601
601 4 26 0.058619 30.944100 32.708663 25.078259
602 4 5 -0.077808 29.962728 33.041296 23.182738
603 4 26 0.029514 29.636646 32.472412 22.300013
604 4 26 0.029514 30.746712 33.745926 22.867242
605 4 5 -0.11903 25.362138 29.105408 26.665853
606 4 26 0.036337 24.602968 28.376868 26.986096
607 4 26 0.036337 25.624925 29.729349 27.531950
608 4 5 0.166712 24.738284 29.994189 25.551182
609 4 26 0.002584 24.487272 29.337435 24.703676
610 4 6 -0.000196 25.662461 31.119700 25.053766