LAMMPS Description

7065  atoms
5899  bonds
7990  angles
9639  dihedrals
408  impropers

90  atom types
840  bond types
4614  angle types
985  dihedral types
38  improper types

-0.5 45.5 xlo xhi
-0.5 45.5 ylo yhi
-0.5 45.5 zlo zhi

Masses

1 12.01
2 12.01
3 12.01
4 12.01
5 12.01
6 12.01
7 12.01
8 12.01
9 12.01
10 12.01
11 12.01
12 12.01
13 12.01
14 12.01
15 12.01
16 12.01
17 12.01
18 12.01
19 12.01
20 1.008
21 1.008
22 1.008
23 1.008
24 1.008
25 1.008
26 1.008
27 1.008
28 1.008
29 1.008
30 1.008
31 1.008
32 1.008
33 19.00
34 35.45
35 79.90
36 126.9
37 14.01
38 14.01
39 14.01
40 14.01
41 14.01
42 14.01
43 14.01
44 14.01
45 14.01
46 14.01
47 14.01
48 14.01
49 14.01
50 14.01
51 14.01
52 14.01
53 14.01
54 14.01
55 14.01
56 14.01
57 14.01
58 14.01
59 14.01
60 14.01
61 16.00
62 16.00
63 16.00
64 16.00
65 30.97
66 30.97
67 30.97
68 30.97
69 30.97
70 30.97
71 30.97
72 30.97
73 30.97
74 30.97
75 30.97
76 32.06
77 32.06
78 32.06
79 32.06
80 32.06
81 32.06
82 32.06
83 32.06
84 6.94
85 39.10
86 22.99
87 35.45
88 19.00
89 79.90
90 126.9

Atoms

1 1 5 -0.035534 38.776596 11.613098 4.755783
2 1 5 0.080268 39.955351 11.770124 5.730267
3 1 1 0.357431 41.305690 11.345577 5.123404
4 1 61 -0.452525 42.009077 10.531809 5.668415
5 1 37 -0.293621 41.636352 12.016567 4.004295
6 1 5 0.217692 42.912713 11.974350 3.243120
7 1 5 -0.070466 44.069446 12.401456 4.152435
8 1 5 -0.070466 43.140571 10.559038 2.703212
9 1 5 -0.085806 42.671977 12.979629 2.095438
10 1 79 1.175038 44.025298 13.513772 1.026417
11 1 61 -0.693141 44.879676 14.339181 1.865104
12 1 61 -0.693141 44.667828 12.304207 0.539933
13 1 61 -0.693141 43.317696 14.261912 -0.000068
14 1 5 -0.25086 39.750351 11.154295 7.130272
15 1 5 -0.013546 39.110277 9.756779 7.355380
16 1 1 0.008494 39.725607 8.621948 6.512176
17 1 61 -0.364478 39.407070 8.480135 5.357236
18 1 37 -0.032757 40.516379 7.778321 7.197998
19 1 5 0.076634 41.169987 6.526905 6.737871
20 1 5 -0.05957 40.178351 5.666749 5.948028
21 1 5 -0.05957 42.384717 6.859737 5.866831
22 1 5 0.138327 41.611278 5.855962 8.063718
23 1 79 1.042142 41.897758 4.079865 8.148473
24 1 61 -0.649256 40.568173 3.475543 8.088473
25 1 61 -0.649256 42.752099 3.732706 7.030532
26 1 61 -0.649256 42.519266 3.927875 9.456440
27 1 5 -0.082003 35.512171 11.737739 20.424974
28 1 5 0.075181 36.463492 10.597957 19.976265
29 1 5 -0.02228 37.197399 10.133082 21.268748
30 1 1 0.624516 37.434342 11.282288 19.013361
31 1 61 -0.569019 38.445433 11.814593 19.353306
32 1 63 -0.27917 36.991741 11.312780 17.766482
33 1 5 -0.060441 37.793522 11.966078 16.784427
34 1 5 0.021812 37.110326 11.809418 15.433158
35 1 5 0.144217 38.029470 12.250892 14.291999
36 1 63 -0.426079 37.385309 12.291855 13.053966
37 1 5 0.077251 37.156160 11.068418 12.396377
38 1 5 -0.044356 37.915777 11.088610 11.077037
39 1 63 -0.283929 37.651987 9.945075 10.266197
40 1 1 0.512445 36.617975 10.023613 9.419662
41 1 61 -0.499807 35.801261 10.882719 9.520674
42 1 5 -0.004149 36.662070 9.043647 8.239571
43 1 5 -0.073848 37.568183 9.756302 7.167269
44 1 5 -0.0374 35.251231 9.010562 7.629601
45 1 5 -0.060697 38.918316 9.163180 22.749156
46 1 5 0.05577 38.223702 8.953299 21.394704
47 1 5 0.005656 37.623429 7.511105 21.164864
48 1 1 0.589397 39.314573 9.023161 20.321032
49 1 61 -0.569216 40.481597 9.130710 20.520464
50 1 63 -0.096089 38.796590 8.835986 19.120072
51 1 5 -0.037398 39.631767 8.635078 17.987114
52 1 5 0.074074 38.650425 8.236355 16.903451
53 1 5 0.110278 39.184863 8.057204 15.495963
54 1 63 -0.327066 38.041941 8.030551 14.693366
55 1 5 -0.007573 38.177733 7.479073 13.418547
56 1 5 -0.192984 36.783440 7.423681 12.831914
57 1 63 -0.115217 36.937840 6.842673 11.560924
58 1 1 0.345313 36.035248 7.044074 10.609335
59 1 61 -0.440163 35.029797 7.655146 10.790638
60 1 5 0.012726 36.516108 6.473757 9.287915
61 1 5 0.064299 37.263831 7.638305 8.531639
62 1 5 -0.023662 35.344811 5.916148 8.464290
63 1 5 -0.056392 35.817935 7.516762 23.010282
64 1 5 0.077609 36.858240 6.678351 22.234564
65 1 5 -0.030403 37.707926 5.952318 23.335192
66 1 1 0.698096 36.000196 5.608537 21.506542
67 1 61 -0.579132 35.075539 5.076096 22.030662
68 1 63 -0.374179 36.345339 5.381003 20.249914
69 1 5 -0.047163 35.552364 4.465986 19.493806
70 1 5 0.018089 35.829336 4.701964 18.014771
71 1 5 0.058185 35.121313 3.653797 17.151375
72 1 63 -0.411597 34.959970 4.037826 15.816864
73 1 5 0.049555 36.070205 3.940986 14.969309
74 1 5 -0.057669 35.523053 3.983201 13.554686
75 1 63 -0.286241 36.621593 4.019535 12.652123
76 1 1 0.61176 36.308534 4.109979 11.358196
77 1 61 -0.54085 35.166121 4.147991 11.016840
78 1 5 0.053397 37.482428 4.085528 10.375129
79 1 5 -0.02533 37.629760 5.401629 9.507809
80 1 5 -0.084509 37.216430 2.894914 9.424784
81 1 5 -0.112186 39.218780 4.351079 24.468261
82 1 5 0.109094 38.958204 5.044793 23.103676
83 1 5 -0.112186 40.243160 5.804725 22.741847
84 1 1 0.59397 38.688115 3.874791 22.161107
85 1 61 -0.515937 37.654683 3.285457 22.118005
86 1 63 -0.327783 39.762279 3.503142 21.481719
87 1 5 -0.036208 39.736655 2.277293 20.757402
88 1 5 0.000818 39.006165 2.403130 19.432884
89 1 5 0.005586 39.216259 1.190953 18.532666
90 1 63 -0.361682 38.255285 1.237647 17.515211
91 1 5 -0.034835 38.647249 0.882503 16.217133
92 1 5 -0.010282 39.326051 2.055163 15.518075
93 1 63 -0.409871 39.128380 1.887479 14.130678
94 1 1 0.68009 39.365277 2.952107 13.350360
95 1 61 -0.559241 39.754216 3.978366 13.812796
96 1 5 -0.014243 39.114746 2.637407 11.891963
97 1 5 -0.003062 38.859750 3.917426 11.066455
98 1 5 -0.141213 40.327405 1.850377 11.352884
99 1 26 0.001432 37.861951 11.979103 5.211871
100 1 26 0.001432 38.638681 10.578778 4.476095
101 1 26 0.001432 38.930719 12.191153 3.851772
102 1 26 -0.007862 40.071815 12.837482 5.914052
103 1 27 0.22967 40.985738 12.699500 3.697540
104 1 26 0.017125 43.918847 13.413874 4.512810
105 1 26 0.017125 45.000596 12.386858 3.604729
106 1 26 0.017125 44.138048 11.730894 4.999684
107 1 26 0.017125 44.020448 10.544091 2.077629
108 1 26 0.017125 42.290560 10.246682 2.104427
109 1 26 0.017125 43.255849 9.859188 3.520568
110 1 20 0.002275 41.917246 12.577980 1.427992
111 1 20 0.002275 42.291271 13.910682 2.504411
112 1 26 0.074615 40.720901 11.146758 7.607435
113 1 26 0.074615 39.134837 11.848429 7.698819
114 1 26 0.055136 39.319987 9.550493 8.396571
115 1 27 0.213471 40.826317 8.109177 8.082268
116 1 26 0.025698 39.303245 5.431948 6.540439
117 1 26 0.025698 40.652676 4.734049 5.679357
118 1 26 0.025698 39.868955 6.181877 5.052646
119 1 26 0.025698 42.909060 5.948613 5.607147
120 1 26 0.025698 43.065865 7.517707 6.394987
121 1 26 0.025698 42.068583 7.368420 4.963897
122 1 20 -0.06642 42.531138 6.314049 8.410169
123 1 20 -0.06642 40.856686 6.024946 8.822619
124 1 26 0.018272 34.752692 11.345735 21.094433
125 1 26 0.018272 35.008324 12.176354 19.570835
126 1 26 0.018272 36.051260 12.523107 20.943631
127 1 5 -0.082003 35.608398 9.528897 19.280981
128 1 26 0.005831 36.419870 9.932810 21.994072
129 1 26 0.005831 37.719884 11.009544 21.628638
130 1 20 0.086732 38.776650 11.515830 16.787675
131 1 20 0.086732 37.908135 13.006311 17.059205
132 1 26 0.026864 36.202170 12.401216 15.405878
133 1 26 0.026864 36.826369 10.772105 15.296915
134 1 20 0.032451 38.902823 11.602085 14.245926
135 1 20 0.032451 38.387018 13.259159 14.470513
136 1 20 0.095186 37.488095 10.240424 13.009028
137 1 20 0.095186 36.096860 10.960909 12.210424
138 1 20 0.107105 37.663650 11.985603 10.535548
139 1 20 0.107105 38.982178 11.069564 11.257137
140 1 26 0.091225 37.214513 10.778258 7.108086
141 1 26 0.091225 37.339185 9.301911 6.213455
142 1 26 0.010459 34.992386 9.986223 7.240402
143 1 26 0.010459 34.504591 8.742942 8.362060
144 1 26 0.010459 35.220708 8.300644 6.811535
145 1 26 0.011222 39.644809 8.394906 22.950877
146 1 26 0.011222 38.201440 9.186116 23.559306
147 1 26 0.011222 39.447434 10.107363 22.746660
148 1 26 -0.052527 36.964986 7.604313 20.323955
149 1 26 -0.052527 38.421653 6.878799 20.802093
150 1 20 0.062125 40.361748 7.867513 18.210009
151 1 20 0.062125 40.160664 9.553008 17.766255
152 1 26 -0.047057 37.884728 8.997844 16.857415
153 1 26 -0.047057 38.154102 7.320059 17.203475
154 1 20 0.046979 39.751143 7.135339 15.390733
155 1 20 0.046979 39.837022 8.879034 15.199467
156 1 20 0.057491 38.820087 8.090452 12.789263
157 1 20 0.057491 38.602617 6.483430 13.470648
158 1 20 0.13494 36.136651 6.813478 13.444556
159 1 20 0.13494 36.338853 8.400912 12.745845
160 1 26 -0.020215 38.198394 7.795201 9.048887
161 1 26 -0.020215 37.523770 7.221352 7.566146
162 1 26 0.015628 34.527647 6.615988 8.400270
163 1 26 0.015628 34.964364 5.011283 8.908022
164 1 26 0.015628 35.687214 5.692750 7.458659
165 1 26 0.0116 35.243719 6.882300 23.670491
166 1 26 0.0116 35.120783 7.996889 22.334498
167 1 26 0.0116 36.296447 8.282952 23.604117
168 1 26 0.010726 36.989836 5.351452 23.878503
169 1 26 0.010726 38.041500 6.718277 24.026765
170 1 20 0.098163 34.511178 4.633133 19.723546
171 1 20 0.098163 35.804905 3.461867 19.805937
172 1 26 0.058558 36.899954 4.684123 17.837379
173 1 26 0.058558 35.469186 5.686479 17.735939
174 1 20 0.054677 34.115644 3.496572 17.523997
175 1 20 0.054677 35.647455 2.703875 17.211813
176 1 20 0.108831 36.767266 4.756994 15.130759
177 1 20 0.108831 36.597878 3.007730 15.135434
178 1 20 0.105916 34.916808 3.110165 13.358752
179 1 20 0.105916 34.902704 4.854974 13.417264
180 1 26 0.041158 37.942373 5.069732 8.526541
181 1 26 0.041158 38.476447 5.927319 9.916937
182 1 26 0.026121 36.320537 3.057704 8.840156
183 1 26 0.026121 37.086619 1.963659 9.967688
184 1 26 0.026121 38.061396 2.784764 8.756945
185 1 26 0.028392 40.090604 3.707131 24.411462
186 1 26 0.028392 38.368770 3.752231 24.772199
187 1 26 0.028392 39.406535 5.097913 25.231053
188 1 26 0.028392 40.201080 6.304906 21.785948
189 1 26 0.028392 41.085599 5.127400 22.714855
190 1 26 0.028392 40.446537 6.547224 23.502873
191 1 20 0.08863 39.287988 1.511792 21.376630
192 1 20 0.08863 40.781656 2.040059 20.609481
193 1 26 0.05277 39.343759 3.296827 18.917760
194 1 26 0.05277 37.947459 2.510515 19.616980
195 1 20 0.070173 39.095796 0.266336 19.094400
196 1 20 0.070173 40.222769 1.192556 18.122617
197 1 20 0.099941 39.278658 -0.001521 16.225394
198 1 20 0.099941 37.741547 0.637212 15.680715
199 1 20 0.109818 38.869380 2.974284 15.847721
200 1 20 0.109818 40.385935 2.114350 15.730441
201 1 26 -0.016271 38.255594 1.978017 11.879184
202 1 26 0.020277 39.593220 3.953349 10.273891
203 1 26 0.020277 39.035516 4.778059 11.694649
204 1 26 0.054331 40.147121 1.569170 10.323280
205 1 26 0.054331 40.503844 0.953200 11.939287
206 1 26 0.054331 41.219578 2.464406 11.348427
207 1 26 0.018272 36.204609 8.778911 18.785257
208 1 26 0.018272 34.968828 9.983037 18.536277
209 1 26 0.018272 34.971341 9.039002 20.011064
210 2 5 -0.035534 26.990265 27.332123 33.495282
211 2 5 0.080268 27.026483 28.456002 34.543768
212 2 1 0.357431 27.021908 27.934875 35.993025
213 2 61 -0.452525 26.201440 28.312689 36.791836
214 2 37 -0.293621 28.043429 27.105985 36.278345
215 2 5 0.217692 28.433512 26.537427 37.595479
216 2 5 -0.070466 28.739952 27.673378 38.576812
217 2 5 -0.070466 27.302093 25.651683 38.126401
218 2 5 -0.085806 29.688825 25.702014 37.260831
219 2 79 1.175038 30.726050 25.015082 38.569219
220 2 61 -0.693141 31.381180 26.157854 39.185282
221 2 61 -0.693141 29.836562 24.292674 39.463363
222 2 61 -0.693141 31.630062 24.160758 37.816238
223 2 5 -0.25086 25.991306 29.583755 34.349175
224 2 5 -0.013546 24.509397 29.316514 33.967143
225 2 1 0.008494 23.794020 28.273020 34.848518
226 2 61 -0.364478 23.960983 27.094220 34.653537
227 2 37 -0.032757 22.916444 28.787469 35.727483
228 2 5 0.076634 21.981351 28.079630 36.638268
229 2 5 -0.05957 21.257340 26.955469 35.890515
230 2 5 -0.05957 22.747705 27.505394 37.833262
231 2 5 0.138327 21.017654 29.205525 37.092609
232 2 79 1.042142 19.366907 28.818065 37.699802
233 2 61 -0.649256 18.609531 28.415815 36.516089
234 2 61 -0.649256 19.512580 27.768887 38.688850
235 2 61 -0.649256 18.924625 30.098114 38.234602
236 2 5 -0.082003 21.849993 41.824140 29.050668
237 2 5 0.075181 21.062834 41.197719 30.231105
238 2 5 -0.02228 20.348627 42.388698 30.935887
239 2 1 0.624516 22.149433 40.604441 31.128528
240 2 61 -0.569019 22.704588 41.210565 31.992029
241 2 63 -0.27917 22.486891 39.371168 30.786924
242 2 5 -0.060441 23.523743 38.728831 31.526130
243 2 5 0.021812 23.679353 37.311801 30.992241
244 2 5 0.144217 24.583586 36.473389 31.898550
245 2 63 -0.426079 24.896763 35.225220 31.356940
246 2 5 0.077251 23.910097 34.222717 31.413589
247 2 5 -0.044356 24.447378 33.074420 32.256695
248 2 63 -0.283929 23.576866 31.944581 32.276412
249 2 1 0.512445 23.745915 31.028111 31.315435
250 2 61 -0.499807 24.395564 31.261996 30.346650
251 2 5 -0.004149 23.189102 29.634242 31.634776
252 2 5 -0.073848 24.325381 28.936681 32.472050
253 2 5 -0.0374 23.122741 28.861573 30.307296
254 2 5 -0.060697 19.256661 43.743154 32.687151
255 2 5 0.05577 19.361420 42.306470 32.152320
256 2 5 0.005656 17.981578 41.599612 31.853210
257 2 1 0.589397 19.922630 41.448818 33.291235
258 2 61 -0.569216 20.145365 41.820970 34.398111
259 2 63 -0.096089 20.029779 40.187403 32.913085
260 2 5 -0.037398 20.314506 39.163072 33.857096
261 2 5 0.074074 20.114944 37.892471 33.055795
262 2 5 0.110278 20.456400 36.574385 33.722726
263 2 63 -0.327066 20.496252 35.655522 32.671420
264 2 5 -0.007573 20.385282 34.305543 33.007534
265 2 5 -0.192984 20.293459 33.550849 31.698616
266 2 63 -0.115217 20.156468 32.198530 32.058193
267 2 1 0.345313 20.493361 31.234372 31.211046
268 2 61 -0.440163 20.856054 31.449343 30.097738
269 2 5 0.012726 20.432633 29.879758 31.892200
270 2 5 0.064299 21.873275 29.590264 32.464880
271 2 5 -0.023662 19.975266 28.786165 30.914401
272 2 5 -0.056392 17.146023 43.118569 29.940091
273 2 5 0.077609 16.755165 42.278905 31.176660
274 2 5 -0.030403 15.871636 43.228461 32.058812
275 2 1 0.698096 15.836157 41.171227 30.594223
276 2 61 -0.579132 15.032524 41.396996 29.747826
277 2 63 -0.374179 16.056883 39.957981 31.073099
278 2 5 -0.047163 15.302066 38.876150 30.527517
279 2 5 0.018089 16.015311 37.574652 30.870046
280 2 5 0.058185 15.181080 36.364116 30.441017
281 2 63 -0.411597 15.921340 35.184861 30.315301
282 2 5 0.049555 16.260330 34.497064 31.486783
283 2 5 -0.057669 16.643329 33.094179 31.053726
284 2 63 -0.286241 17.122364 32.390500 32.193065
285 2 1 0.61176 17.550650 31.146486 31.970726
286 2 61 -0.54085 17.511606 30.684160 30.871724
287 2 5 0.053397 18.008689 30.358878 33.201547
288 2 5 -0.02533 19.531797 29.928765 33.166612
289 2 5 -0.084509 17.135846 29.082860 33.238843
290 2 5 -0.112186 14.258615 44.046022 33.750040
291 2 5 0.109094 15.283650 42.913374 33.471394
292 2 5 -0.112186 16.308183 42.953437 34.615184
293 2 1 0.59397 14.427189 41.650071 33.500210
294 2 61 -0.515937 13.724984 41.306742 32.602330
295 2 63 -0.327783 14.451238 41.039108 34.674800
296 2 5 -0.036208 13.514275 39.999076 34.936393
297 2 5 0.000818 13.919984 38.681658 34.301090
298 2 5 0.005586 13.085951 37.509180 34.804664
299 2 63 -0.361682 13.288251 36.430838 33.934538
300 2 5 -0.034835 13.408871 35.148021 34.486446
301 2 5 -0.010282 14.829048 34.906195 34.985648
302 2 63 -0.409871 15.060986 33.515011 34.932037
303 2 1 0.68009 16.335285 33.107661 35.025189
304 2 61 -0.559241 17.220642 33.889546 35.177254
305 2 5 -0.014243 16.442278 31.600325 34.952964
306 2 5 -0.003062 17.856028 31.147210 34.527606
307 2 5 -0.141213 16.054903 31.022501 36.330144
308 2 26 0.001432 27.053462 27.750193 32.495395
309 2 26 0.001432 26.081111 26.754238 33.576225
310 2 26 0.001432 27.831693 26.658071 33.608375
311 2 26 -0.007862 27.992411 28.949405 34.443120
312 2 27 0.22967 28.676930 26.924117 35.537132
313 2 26 0.017125 29.559056 28.284054 38.211183
314 2 26 0.017125 29.037460 27.270420 39.534073
315 2 26 0.017125 27.863502 28.296236 38.703590
316 2 26 0.017125 27.614873 25.167976 39.039613
317 2 26 0.017125 27.057283 24.883296 37.399572
318 2 26 0.017125 26.414448 26.243902 38.306714
319 2 20 0.002275 29.395738 24.855432 36.649419
320 2 20 0.002275 30.380811 26.305700 36.681372
321 2 26 0.074615 25.991036 30.161332 35.263567
322 2 26 0.074615 26.375573 30.240984 33.571799
323 2 26 0.055136 24.032669 30.274056 34.129791
324 2 27 0.213471 23.007883 29.761857 35.899727
325 2 26 0.025698 20.720563 27.337238 35.031438
326 2 26 0.025698 20.535895 26.496773 36.550979
327 2 26 0.025698 21.964684 26.211283 35.560904
328 2 26 0.025698 22.051623 27.067893 38.537947
329 2 26 0.025698 23.312495 28.283013 38.335412
330 2 26 0.025698 23.450227 26.751323 37.498853
331 2 20 -0.06642 21.486830 29.784818 37.880204
332 2 20 -0.06642 20.828834 29.876009 36.262734
333 2 26 0.018272 21.160114 42.249436 28.328282
334 2 26 0.018272 22.442573 41.072007 28.541803
335 2 26 0.018272 22.515271 42.610464 29.390561
336 2 5 -0.082003 20.135075 40.121733 29.648856
337 2 26 0.005831 19.819257 42.919248 30.155477
338 2 26 0.005831 21.145065 43.047981 31.254838
339 2 20 0.086732 23.252839 38.731986 32.572971
340 2 20 0.086732 24.436308 39.300698 31.421646
341 2 26 0.026864 24.102310 37.335867 29.994121
342 2 26 0.026864 22.701135 36.850265 30.919539
343 2 20 0.032451 24.123833 36.358897 32.879028
344 2 20 0.032451 25.533168 36.976402 32.045452
345 2 20 0.095186 22.997811 34.612300 31.846088
346 2 20 0.095186 23.700119 33.877421 30.411125
347 2 20 0.107105 25.415418 32.782458 31.883825
348 2 20 0.107105 24.541259 33.379077 33.290319
349 2 26 0.091225 25.248909 29.125113 31.938602
350 2 26 0.091225 24.151503 27.871647 32.407678
351 2 26 0.010459 24.117542 28.735757 29.901179
352 2 26 0.010459 22.532710 29.383765 29.569212
353 2 26 0.010459 22.698462 27.878645 30.474596
354 2 26 0.011222 18.586594 43.810877 33.526886
355 2 26 0.011222 18.920892 44.425680 31.917608
356 2 26 0.011222 20.227612 44.078385 33.028219
357 2 26 -0.052527 18.221306 40.741622 31.256766
358 2 26 -0.052527 17.621586 41.179232 32.781790
359 2 20 0.062125 19.639235 39.251562 34.698456
360 2 20 0.062125 21.326912 39.283412 34.219944
361 2 26 -0.047057 20.725339 37.965573 32.166778
362 2 26 -0.047057 19.085167 37.852033 32.718344
363 2 20 0.046979 19.709959 36.285990 34.458414
364 2 20 0.046979 21.420609 36.611614 34.230211
365 2 20 0.057491 21.250955 33.965548 33.570930
366 2 20 0.057491 19.499747 34.127154 33.606325
367 2 20 0.13494 19.433243 33.874794 31.131958
368 2 20 0.13494 21.168904 33.689169 31.086645
369 2 26 -0.020215 22.009830 30.248004 33.310042
370 2 26 -0.020215 21.814408 28.588531 32.873119
371 2 26 0.015628 20.525123 28.817937 29.987968
372 2 26 0.015628 18.930765 28.900575 30.677026
373 2 26 0.015628 20.123393 27.812127 31.370196
374 2 26 0.0116 16.259909 43.490251 29.445324
375 2 26 0.0116 17.693426 42.522443 29.220223
376 2 26 0.0116 17.761040 43.962941 30.218394
377 2 26 0.010726 15.030083 43.479918 31.426009
378 2 26 0.010726 16.434207 44.146700 32.187606
379 2 20 0.098163 15.227160 39.006170 29.458747
380 2 20 0.098163 14.302880 38.919852 30.938827
381 2 26 0.058558 16.219313 37.540666 31.935521
382 2 26 0.058558 16.969189 37.542972 30.354450
383 2 20 0.054677 14.763467 36.542185 29.456727
384 2 20 0.054677 14.351799 36.219853 31.129719
385 2 20 0.108831 17.087300 34.973434 32.003524
386 2 20 0.108831 15.414929 34.458121 32.165594
387 2 20 0.105916 15.787362 32.580671 30.639304
388 2 20 0.105916 17.407772 33.130808 30.293469
389 2 26 0.041158 19.565891 28.943115 33.611696
390 2 26 0.041158 20.034120 30.577282 33.864975
391 2 26 0.026121 17.326285 28.457118 32.376813
392 2 26 0.026121 16.075582 29.316626 33.244070
393 2 26 0.026121 17.366481 28.527383 34.139044
394 2 26 0.028392 13.806441 43.922527 34.728948
395 2 26 0.028392 13.470917 44.053507 33.006407
396 2 26 0.028392 14.758878 45.007452 33.734081
397 2 26 0.028392 17.061515 42.182370 34.554844
398 2 26 0.028392 15.811014 42.844925 35.569255
399 2 26 0.028392 16.807342 43.913992 34.615474
400 2 20 0.08863 12.536972 40.310922 34.592350
401 2 20 0.08863 13.499093 39.927323 36.015656
402 2 26 0.05277 14.968935 38.490679 34.504183
403 2 26 0.05277 13.799993 38.749038 33.229949
404 2 20 0.070173 12.027680 37.763937 34.816325
405 2 20 0.070173 13.368732 37.251398 35.821909
406 2 20 0.099941 12.673775 34.986674 35.269928
407 2 20 0.099941 13.199523 34.450689 33.687628
408 2 20 0.109818 15.522004 35.421241 34.340250
409 2 20 0.109818 14.985684 35.262905 35.995687
410 2 26 -0.016271 15.692209 31.288587 34.236502
411 2 26 0.020277 18.244392 30.500296 35.300977
412 2 26 0.020277 18.502192 32.011616 34.489075
413 2 26 0.054331 16.074407 29.941108 36.286891
414 2 26 0.054331 15.061273 31.347202 36.625430
415 2 26 0.054331 16.772701 31.309270 37.088797
416 2 26 0.018272 19.673222 39.515262 30.412121
417 2 26 0.018272 20.687915 39.460262 28.995633
418 2 26 0.018272 19.353894 40.592717 29.059967
419 3 5 -0.035534 3.491632 16.202603 15.567890
420 3 5 0.080268 4.953218 16.085766 15.105445
421 3 1 0.357431 5.556323 17.428804 14.653282
422 3 61 -0.452525 6.065886 17.552592 13.567449
423 3 37 -0.293621 5.524455 18.387198 15.597970
424 3 5 0.217692 6.139341 19.740362 15.564399
425 3 5 -0.070466 7.654411 19.613464 15.375291
426 3 5 -0.070466 5.516930 20.557789 14.428200
427 3 5 -0.085806 5.771648 20.328831 16.944334
428 3 79 1.175038 6.515622 21.866454 17.528981
429 3 61 -0.693141 7.910006 21.547702 17.791182
430 3 61 -0.693141 6.323229 22.845101 16.471724
431 3 61 -0.693141 5.742668 22.134144 18.731050
432 3 5 -0.25086 5.241949 14.967500 14.082019
433 3 5 -0.013546 4.318100 14.670436 12.868893
434 3 1 0.008494 3.958516 15.902768 12.014773
435 3 61 -0.364478 3.090341 16.659808 12.373421
436 3 37 -0.032757 4.594151 15.971014 10.832112
437 3 5 0.076634 4.407432 16.942775 9.724961
438 3 5 -0.05957 2.915875 17.149327 9.442724
439 3 5 -0.05957 5.062740 18.279294 10.084607
440 3 5 0.138327 5.146715 16.268832 8.540885
441 3 79 1.042142 4.738361 16.690101 6.838078
442 3 61 -0.649256 3.434967 16.074820 6.594772
443 3 61 -0.649256 4.731620 18.136451 6.747326
444 3 61 -0.649256 5.807652 16.040944 6.092852
445 3 5 -0.082003 8.627205 1.850646 10.684984
446 3 5 0.075181 8.722353 2.966071 9.611565
447 3 5 -0.02228 9.753505 2.451240 8.564227
448 3 1 0.624516 9.274755 4.170047 10.375328
449 3 61 -0.569019 10.437308 4.391223 10.519441
450 3 63 -0.27917 8.329682 4.896710 10.950072
451 3 5 -0.060441 8.728124 6.023282 11.728636
452 3 5 0.021812 7.471958 6.726928 12.222755
453 3 5 0.144217 7.804415 8.086340 12.841981
454 3 63 -0.426079 6.709300 8.686981 13.465921
455 3 5 0.077251 5.743303 9.297471 12.643801
456 3 5 -0.044356 5.703357 10.781973 12.979573
457 3 63 -0.283929 4.665658 11.479444 12.292964
458 3 1 0.512445 3.469765 11.536137 12.891794
459 3 61 -0.499807 3.203913 10.825695 13.808247
460 3 5 -0.004149 2.555740 12.675807 12.422115
461 3 5 -0.073848 3.014619 13.923838 13.265085
462 3 5 -0.0374 1.136949 12.346106 12.914003
463 3 5 -0.060697 11.459929 2.452323 6.780415
464 3 5 0.05577 10.173017 3.161513 7.229846
465 3 5 0.005656 9.041270 3.256654 6.132954
466 3 1 0.589397 10.532150 4.634537 7.450924
467 3 61 -0.569216 11.587195 5.134823 7.227593
468 3 63 -0.096089 9.467586 5.320441 7.827601
469 3 5 -0.037398 9.494023 6.741051 7.879042
470 3 5 0.074074 8.042369 7.103041 8.119876
471 3 5 0.110278 7.706741 8.562805 8.354786
472 3 63 -0.327066 6.406786 8.540434 8.865429
473 3 5 -0.007573 5.681327 9.730841 8.799299
474 3 5 -0.192984 4.278456 9.396281 9.258955
475 3 63 -0.115217 3.558266 10.599815 9.160686
476 3 1 0.345313 2.460987 10.793937 9.881138
477 3 61 -0.440163 1.991844 9.955113 10.583628
478 3 5 0.012726 1.976688 12.225216 9.741382
479 3 5 0.064299 2.637174 13.048527 10.913190
480 3 5 -0.023662 0.442444 12.299328 9.784093
481 3 5 -0.056392 8.526352 0.742403 5.852224
482 3 5 0.077609 8.646195 2.114342 5.151989
483 3 5 -0.030403 9.575378 1.866364 3.912796
484 3 1 0.698096 7.210122 2.387477 4.628685
485 3 61 -0.579132 6.537418 1.530949 4.152224
486 3 63 -0.374179 6.781086 3.626336 4.805216
487 3 5 -0.047163 5.441225 3.931491 4.418671
488 3 5 0.018089 5.026118 5.223160 5.110926
489 3 5 0.058185 3.650006 5.686943 4.624486
490 3 63 -0.411597 3.017404 6.582436 5.491859
491 3 5 0.049555 3.438846 7.917527 5.475482
492 3 5 -0.057669 2.334170 8.714417 6.144041
493 3 63 -0.286241 2.770156 10.062210 6.270929
494 3 1 0.61176 1.926648 10.890595 6.889562
495 3 61 -0.54085 0.876925 10.490821 7.291233
496 3 5 0.053397 2.359419 12.357066 6.974510
497 3 5 -0.02533 2.551600 12.892181 8.451938
498 3 5 -0.084509 1.233966 13.172482 6.296335
499 3 5 -0.112186 10.707279 2.135486 1.727192
500 3 5 0.109094 10.099694 2.941029 2.907520
501 3 5 -0.112186 11.221132 3.836864 3.454680
502 3 1 0.59397 8.982656 3.744162 2.246087
503 3 61 -0.515937 7.925860 3.284817 1.947190
504 3 63 -0.327783 9.353483 4.974696 1.927043
505 3 5 -0.036208 8.513863 5.756815 1.083640
506 3 5 0.000818 7.340939 6.360530 1.834355
507 3 5 0.005586 6.605780 7.416688 1.017057
508 3 63 -0.361682 5.371690 7.657206 1.633532
509 3 5 -0.034835 4.910708 8.979299 1.699398
510 3 5 -0.010282 5.548077 9.715695 2.872457
511 3 63 -0.409871 4.651493 10.732092 3.266333
512 3 1 0.68009 4.860983 11.295812 4.464992
513 3 61 -0.559241 5.782281 10.968760 5.145118
514 3 5 -0.014243 3.832341 12.364493 4.762555
515 3 5 -0.003062 3.715176 12.639225 6.277721
516 3 5 -0.141213 4.222675 13.639488 3.986288
517 3 26 0.001432 3.134917 15.242948 15.928955
518 3 26 0.001432 2.853720 16.531958 14.760636
519 3 26 0.001432 3.390819 16.904613 16.387741
520 3 26 -0.007862 5.539992 15.814052 15.982064
521 3 27 0.22967 5.123002 18.128751 16.467358
522 3 26 0.017125 8.096759 19.056436 16.194796
523 3 26 0.017125 8.112858 20.591678 15.362736
524 3 26 0.017125 7.867322 19.102668 14.444728
525 3 26 0.017125 5.896931 21.568070 14.454528
526 3 26 0.017125 4.438068 20.595691 14.543311
527 3 26 0.017125 5.740781 20.103141 13.471990
528 3 20 0.002275 4.700177 20.492762 16.983102
529 3 20 0.002275 6.026052 19.614308 17.721373
530 3 26 0.074615 6.234566 15.154141 13.695256
531 3 26 0.074615 5.299814 14.032904 14.636192
532 3 26 0.055136 4.912975 14.003548 12.258979
533 3 27 0.213471 5.395201 15.389462 10.745074
534 3 26 0.025698 2.428534 16.213427 9.200891
535 3 26 0.025698 2.802912 17.807218 8.593302
536 3 26 0.025698 2.431242 17.586600 10.301043
537 3 26 0.025698 5.001656 18.955201 9.240844
538 3 26 0.025698 6.105762 18.136651 10.344593
539 3 26 0.025698 4.566675 18.719814 10.941259
540 3 20 -0.06642 6.212578 16.445300 8.634737
541 3 20 -0.06642 4.988769 15.197626 8.579186
542 3 26 0.018272 8.208600 0.949298 10.247957
543 3 26 0.018272 7.980889 2.156097 11.500320
544 3 26 0.018272 9.602394 1.609903 11.094222
545 3 5 -0.082003 7.304872 3.214807 9.076425
546 3 26 0.005831 9.420848 1.460311 8.284667
547 3 26 0.005831 10.672719 2.310306 9.117291
548 3 20 0.086732 9.330967 6.673540 11.109749
549 3 20 0.086732 9.347580 5.683212 12.547997
550 3 26 0.026864 6.970056 6.113628 12.962805
551 3 26 0.026864 6.788239 6.858160 11.391781
552 3 20 0.032451 8.221493 8.747961 12.084273
553 3 20 0.032451 8.555554 7.969591 13.615590
554 3 20 0.095186 5.988691 9.154361 11.599579
555 3 20 0.095186 4.779480 8.849069 12.839339
556 3 20 0.107105 5.581633 10.902475 14.043545
557 3 20 0.107105 6.621816 11.262094 12.669855
558 3 26 0.091225 3.096156 13.579998 14.288855
559 3 26 0.091225 2.196253 14.629998 13.248094
560 3 26 0.010459 1.114212 12.327604 13.995451
561 3 26 0.010459 0.806454 11.379674 12.564185
562 3 26 0.010459 0.443714 13.106205 12.573675
563 3 26 0.011222 11.837269 2.853671 5.855610
564 3 26 0.011222 11.301153 1.388851 6.659597
565 3 26 0.011222 12.233098 2.590499 7.525109
566 3 26 -0.052527 8.148736 3.524424 6.663092
567 3 26 -0.052527 9.250926 4.122917 5.521230
568 3 20 0.062125 9.884712 7.127496 6.946448
569 3 20 0.062125 10.150398 7.057119 8.679279
570 3 26 -0.047057 7.707689 6.556617 8.990329
571 3 26 -0.047057 7.450867 6.742787 7.285435
572 3 20 0.046979 7.749955 9.142474 7.436255
573 3 20 0.046979 8.386496 9.027929 9.069083
574 3 20 0.057491 6.110892 10.492481 9.445658
575 3 20 0.057491 5.662273 10.116904 7.786809
576 3 20 0.13494 3.837728 8.645054 8.620652
577 3 20 0.13494 4.258448 9.029061 10.271277
578 3 26 -0.020215 3.683570 13.152635 10.668679
579 3 26 -0.020215 2.211424 14.041232 10.830307
580 3 26 0.015628 0.035127 11.748453 10.616114
581 3 26 0.015628 0.016500 11.890300 8.883156
582 3 26 0.015628 0.135411 13.336692 9.873798
583 3 26 0.0116 8.156649 -0.000002 5.159190
584 3 26 0.0116 7.831058 0.786500 6.681589
585 3 26 0.0116 9.483383 0.410293 6.229657
586 3 26 0.010726 9.048322 1.127030 3.323323
587 3 26 0.010726 10.466195 1.372538 4.285380
588 3 20 0.098163 4.799004 3.113974 4.708507
589 3 20 0.098163 5.410557 4.012639 3.340741
590 3 26 0.058558 5.773752 5.989166 4.931242
591 3 26 0.058558 4.981065 5.056625 6.181890
592 3 20 0.054677 2.982228 4.835513 4.560640
593 3 20 0.054677 3.731939 6.116930 3.628881
594 3 20 0.108831 4.375318 8.046435 6.008615
595 3 20 0.108831 3.579930 8.261523 4.456284
596 3 20 0.105916 1.430531 8.675975 5.552368
597 3 20 0.105916 2.110940 8.304952 7.116775
598 3 26 0.041158 2.191842 13.912581 8.440721
599 3 26 0.041158 3.616276 12.964145 8.599924
600 3 26 0.026121 0.306499 13.086332 6.847059
601 3 26 0.026121 1.043323 12.835168 5.282082
602 3 26 0.026121 1.529733 14.213272 6.259086
603 3 26 0.028392 11.119764 2.803848 0.978112
604 3 26 0.028392 9.960452 1.509073 1.254573
605 3 26 0.028392 11.511061 1.503900 2.087607
606 3 26 0.028392 10.911260 4.480174 4.264511
607 3 26 0.028392 11.612409 4.470556 2.670754
608 3 26 0.028392 12.034677 3.216543 3.808477
609 3 20 0.08863 8.172987 5.143631 0.259901
610 3 20 0.08863 9.172412 6.524338 0.699702
611 3 26 0.05277 7.694108 6.803333 2.760214
612 3 26 0.05277 6.639956 5.579888 2.090292
613 3 20 0.070173 6.434198 7.068661 -0.000002
614 3 20 0.070173 7.196812 8.326524 0.953158
615 3 20 0.099941 5.074890 9.499894 0.760108
616 3 20 0.099941 3.844037 8.923197 1.864547
617 3 20 0.109818 5.699529 9.022143 3.683656
618 3 20 0.109818 6.506899 10.152243 2.623370
619 3 26 -0.016271 2.900648 11.995046 4.351995