LAMMPS Description

5484  atoms
4947  bonds
7854  angles
10302  dihedrals
408  impropers

90  atom types
840  bond types
4614  angle types
985  dihedral types
38  improper types

-0.5 45.5 xlo xhi
-0.5 45.5 ylo yhi
-0.5 45.5 zlo zhi

Masses

1 12.01
2 12.01
3 12.01
4 12.01
5 12.01
6 12.01
7 12.01
8 12.01
9 12.01
10 12.01
11 12.01
12 12.01
13 12.01
14 12.01
15 12.01
16 12.01
17 12.01
18 12.01
19 12.01
20 1.008
21 1.008
22 1.008
23 1.008
24 1.008
25 1.008
26 1.008
27 1.008
28 1.008
29 1.008
30 1.008
31 1.008
32 1.008
33 19.00
34 35.45
35 79.90
36 126.9
37 14.01
38 14.01
39 14.01
40 14.01
41 14.01
42 14.01
43 14.01
44 14.01
45 14.01
46 14.01
47 14.01
48 14.01
49 14.01
50 14.01
51 14.01
52 14.01
53 14.01
54 14.01
55 14.01
56 14.01
57 14.01
58 14.01
59 14.01
60 14.01
61 16.00
62 16.00
63 16.00
64 16.00
65 30.97
66 30.97
67 30.97
68 30.97
69 30.97
70 30.97
71 30.97
72 30.97
73 30.97
74 30.97
75 30.97
76 32.06
77 32.06
78 32.06
79 32.06
80 32.06
81 32.06
82 32.06
83 32.06
84 6.94
85 39.10
86 22.99
87 35.45
88 19.00
89 79.90
90 126.9

Atoms

1 1 5 -0.326742 35.647257 18.385961 3.941640
2 1 5 0.017198 35.659086 17.139799 4.829184
3 1 1 0.394188 36.978624 16.381879 4.737551
4 1 61 -0.513516 36.990612 15.208851 4.400994
5 1 37 -0.318253 38.128853 17.009344 5.149201
6 1 5 0.253336 39.469585 16.409677 5.250819
7 1 5 -0.153575 39.429045 15.203710 6.216435
8 1 5 -0.153575 39.943114 15.953649 3.864630
9 1 5 -0.10529 40.437707 17.505044 5.805909
10 1 79 1.173264 42.207052 17.070712 6.048999
11 1 61 -0.685611 42.945402 16.646331 4.558502
12 1 61 -0.685611 42.969941 18.481271 6.660829
13 1 61 -0.685611 42.376982 15.807920 7.199201
14 1 5 0.006838 34.361916 16.254464 4.775495
15 1 5 0.040646 33.419261 15.941156 3.527450
16 1 5 -0.027518 32.727962 17.256538 3.087738
17 1 1 0.395206 34.135286 15.390756 2.287245
18 1 61 -0.468954 33.451514 15.154057 1.300270
19 1 63 -0.174507 35.494054 15.267031 2.186093
20 1 5 0.150236 36.100336 15.109539 0.940709
21 1 5 -0.054794 37.635999 15.045938 0.985441
22 1 5 0.144718 38.198745 13.723733 1.521004
23 1 63 -0.399142 39.618816 13.751164 1.423376
24 1 5 0.122665 40.149366 12.574720 1.999762
25 1 5 -0.104134 41.670209 12.493814 1.832490
26 1 63 -0.337202 42.190851 11.288770 2.304308
27 1 1 0.759957 42.249773 10.861131 3.603882
28 1 61 -0.581204 41.809007 11.575836 4.490567
29 1 5 0.062457 42.993171 9.556366 3.969935
30 1 5 -0.076044 43.592474 8.958246 2.669482
31 1 5 -0.076044 44.187291 9.928167 4.872147
32 1 5 0.066126 32.339585 14.915419 4.118881
33 1 5 0.074152 31.044554 14.258563 3.450251
34 1 5 0.020526 30.035812 15.390474 3.075593
35 1 1 0.077412 31.398064 13.467113 2.161064
36 1 61 -0.371263 30.902944 13.841431 1.106786
37 1 63 -0.111764 32.238439 12.404614 2.054493
38 1 5 -0.066862 32.906365 11.689543 3.013213
39 1 5 -0.053241 34.401018 11.792967 2.772478
40 1 5 0.028072 35.158492 10.964651 3.792460
41 1 63 -0.278632 36.525905 11.098241 3.534445
42 1 5 -0.042452 37.230699 10.141284 4.282407
43 1 5 0.011714 38.672204 10.555285 4.273414
44 1 63 -0.084543 39.446370 9.565403 4.797314
45 1 1 -0.009992 40.319497 9.638739 5.825217
46 1 61 -0.354227 40.351684 10.601781 6.580091
47 1 5 0.016227 41.256954 8.472097 5.950973
48 1 5 0.078568 42.083542 8.403596 4.594187
49 1 5 0.027761 42.207193 8.546875 7.167638
50 1 5 0.046561 30.316710 13.399981 4.605025
51 1 5 0.107984 29.298959 12.193703 4.359734
52 1 5 -0.029328 28.407707 12.501728 3.134377
53 1 1 0.014276 30.119585 10.913177 4.139895
54 1 61 -0.371205 30.009041 10.328960 3.071802
55 1 63 -0.238097 30.954700 10.336656 5.068655
56 1 5 -0.000365 31.318615 10.624941 6.386522
57 1 5 0.007958 32.830037 10.623055 6.531977
58 1 5 0.014704 33.270465 10.643493 8.005662
59 1 63 -0.388664 34.676533 10.747024 8.142398
60 1 5 0.113896 35.303252 9.530388 7.790514
61 1 5 -0.00626 36.778757 9.590082 8.152238
62 1 63 -0.029346 37.386457 8.450482 7.671240
63 1 1 0.593203 38.704027 8.148922 7.801402
64 1 61 -0.558975 39.412646 8.875884 8.480866
65 1 5 0.123196 39.278351 6.864350 7.167552
66 1 5 -0.021611 40.356895 7.166175 6.024659
67 1 5 -0.052628 39.927738 6.050254 8.302840
68 1 5 -0.009258 28.356442 11.999810 5.627704
69 1 5 0.137918 27.251730 10.884234 5.795358
70 1 5 -0.044654 26.027473 11.154169 4.857924
71 1 1 0.501095 27.778579 9.462005 5.492648
72 1 61 -0.567231 27.259414 8.822710 4.584692
73 1 63 0.013794 28.785253 8.881841 6.204980
74 1 5 -0.104029 29.108592 7.524434 6.142574
75 1 5 0.006748 30.497288 7.289702 5.523045
76 1 5 0.071664 30.854547 5.796788 5.503195
77 1 63 -0.384397 32.053011 5.572069 4.780067
78 1 5 0.125944 33.177766 5.472955 5.632623
79 1 5 0.015801 34.370851 5.006040 4.799738
80 1 63 -0.132493 35.515206 4.914217 5.573889
81 1 1 0.696583 36.731291 4.559364 5.067430
82 1 61 -0.599874 36.826201 4.264958 3.881289
83 1 5 0.067838 37.991148 4.637483 5.950376
84 1 5 0.005441 38.025608 6.097565 6.541037
85 1 5 -0.063474 39.233861 4.369999 5.064401
86 1 5 -0.061231 26.609614 10.935713 7.250634
87 1 5 0.093328 27.351770 11.217177 8.615928
88 1 5 -0.063451 26.325461 10.947566 9.745828
89 1 1 0.648761 28.548225 10.320003 8.900273
90 1 61 -0.524796 29.630249 10.824079 9.164704
91 1 63 -0.344027 28.373946 8.974094 8.999078
92 1 5 -0.137957 29.084064 8.110569 9.824894
93 1 5 0.086443 30.603569 8.070056 9.569935
94 1 5 0.173524 31.275706 7.054233 10.500380
95 1 63 -0.408589 32.685692 7.092872 10.369341
96 1 5 0.086776 33.148249 6.205805 9.369010
97 1 5 0.133865 34.597024 5.839553 9.679649
98 1 63 -0.452331 35.071877 4.934467 8.750342
99 1 1 0.777226 36.300834 4.358701 8.825455
100 1 61 -0.560457 37.083073 4.675637 9.710903
101 1 5 0.026178 36.655793 3.249449 7.868983
102 1 5 -0.005638 37.946516 3.491051 7.027268
103 1 5 -0.105595 36.811501 1.952207 8.678697
104 1 5 -0.063451 27.740700 12.721230 8.758131
105 1 26 0.095459 36.533488 19.024822 4.131033
106 1 26 0.095459 34.758120 19.008857 4.170901
107 1 26 0.095459 35.669430 18.094569 2.870701
108 1 26 0.032263 35.683142 17.494784 5.885688
109 1 27 0.206195 38.031810 17.988832 5.458326
110 1 26 0.04376 39.103401 15.528687 7.227533
111 1 26 0.04376 40.419543 14.717167 6.293639
112 1 26 0.04376 38.734882 14.414245 5.867214
113 1 26 0.04376 40.937111 15.470141 3.909367
114 1 26 0.04376 39.979420 16.809903 3.157764
115 1 26 0.04376 39.256568 15.195978 3.469786
116 1 20 0.008208 40.418745 18.382931 5.124085
117 1 20 0.008208 40.059945 17.856246 6.790569
118 1 26 0.015381 34.634276 15.304457 5.286118
119 1 26 0.015381 33.674345 16.759391 5.493085
120 1 26 0.010954 33.442691 18.004349 2.716571
121 1 26 0.010954 32.138147 17.702913 3.916613
122 1 26 0.010954 32.079743 17.118041 2.212665
123 1 20 0.028447 35.838137 16.002174 0.329467
124 1 20 0.028447 35.707572 14.207893 0.419723
125 1 26 0.037765 38.025992 15.914929 1.555986
126 1 26 0.037765 37.998958 15.136902 -0.062142
127 1 20 0.010085 37.791978 12.897979 0.893650
128 1 20 0.010085 37.860862 13.589147 2.572112
129 1 20 0.064583 39.946637 12.590221 3.087261
130 1 20 0.064583 39.730679 11.683334 1.480267
131 1 20 0.134171 41.895584 12.555956 0.746791
132 1 20 0.134171 42.167188 13.350783 2.337332
133 1 26 0.013105 44.269253 9.683878 2.167035
134 1 26 0.013105 42.788951 8.686421 1.950705
135 1 26 0.013105 44.185115 8.042692 2.885944
136 1 26 0.013105 44.883390 10.605295 4.330158
137 1 26 0.013105 44.753634 9.022439 5.178419
138 1 26 0.013105 43.875704 10.497271 5.763353
139 1 26 -0.014706 32.952191 14.072631 4.484212
140 1 26 -0.014706 31.937411 15.409877 5.032481
141 1 26 0.002529 30.374687 16.011970 2.237238
142 1 26 0.002529 29.826593 16.050987 3.944389
143 1 26 0.002529 29.069715 14.994349 2.723282
144 1 20 0.12772 32.607710 10.624366 2.924791
145 1 20 0.12772 32.657656 12.033970 4.017445
146 1 26 0.055769 34.722936 12.848167 2.857886
147 1 26 0.055769 34.637031 11.425562 1.749416
148 1 20 0.052675 34.822490 9.903471 3.700433
149 1 20 0.052675 34.955887 11.362168 4.803953
150 1 20 0.071529 36.908286 10.098139 5.341819
151 1 20 0.071529 37.131635 9.142560 3.798523
152 1 20 0.101738 38.957327 10.627573 3.215997
153 1 20 0.101738 38.808276 11.528585 4.795276
154 1 26 -0.009983 41.349351 8.174350 3.788798
155 1 26 -0.009983 42.726425 7.498950 4.684685
156 1 26 0.014273 42.788358 9.476736 7.192659
157 1 26 0.014273 42.903992 7.681962 7.163053
158 1 26 0.014273 41.677808 8.534306 8.129837
159 1 26 0.024055 31.097422 13.018042 5.274746
160 1 26 0.024055 29.808656 14.145308 5.256382
161 1 26 0.035106 28.992307 12.725250 2.231254
162 1 26 0.035106 27.711415 13.341351 3.340695
163 1 26 0.035106 27.843297 11.618303 2.814567
164 1 20 0.057745 30.920363 9.820261 7.029795
165 1 20 0.057745 30.965955 11.579451 6.793284
166 1 26 0.057193 33.225943 11.528948 6.046171
167 1 26 0.057193 33.213334 9.708058 6.036280
168 1 20 0.094052 32.877654 9.760432 8.554207
169 1 20 0.094052 32.825706 11.535759 8.495779
170 1 20 0.027996 34.854800 8.662123 8.321700
171 1 20 0.027996 35.245372 9.372651 6.695398
172 1 20 0.082244 37.244717 10.481687 7.678130
173 1 20 0.082244 36.894540 9.660447 9.255941
174 1 26 0.012596 39.780588 7.197728 5.077870
175 1 26 0.012596 41.024080 6.289344 5.919316
176 1 26 0.009764 40.756344 6.605824 8.782284
177 1 26 0.009764 40.364788 5.109141 7.918753
178 1 26 0.009764 39.188582 5.813796 9.091560
179 1 26 -0.030336 29.011146 11.820532 6.466108
180 1 26 -0.030336 27.851998 12.973048 5.816456
181 1 26 0.006044 26.202619 10.993162 3.789135
182 1 26 0.006044 25.639131 12.186790 4.994034
183 1 26 0.006044 25.199888 10.449466 5.096387
184 1 20 0.074579 28.364015 6.953014 5.545951
185 1 20 0.074579 29.073137 7.103078 7.164979
186 1 26 0.088143 31.280584 7.818297 6.098382
187 1 26 0.088143 30.488636 7.677629 4.481545
188 1 20 0.053129 30.050994 5.240869 4.974764
189 1 20 0.053129 30.876000 5.386876 6.540413
190 1 20 -0.016681 33.416497 6.470132 6.062549
191 1 20 -0.016681 33.017765 4.719573 6.437689
192 1 20 0.067194 34.141200 4.012966 4.354018
193 1 20 0.067194 34.539006 5.740436 3.980670
194 1 26 -0.197517 37.198577 6.118072 7.273017
195 1 26 -0.197517 37.693499 6.775211 5.719302
196 1 26 0.015232 39.329488 5.127380 4.258857
197 1 26 0.015232 39.160879 3.376382 4.570705
198 1 26 0.015232 40.157491 4.336626 5.671462
199 1 26 0.019378 25.833254 11.735364 7.243273
200 1 26 0.019378 26.039018 9.983924 7.352334
201 1 26 0.019315 25.983337 9.889718 9.732918
202 1 26 0.019315 25.428502 11.595689 9.636734
203 1 26 0.019315 26.771091 11.144878 10.745889
204 1 20 0.115089 28.671436 7.090518 9.673374
205 1 20 0.115089 28.897271 8.396732 10.883235
206 1 26 -0.023095 31.053421 9.056701 9.783450
207 1 26 -0.023095 30.812802 7.795360 8.518534
208 1 20 0.027059 30.845998 6.035693 10.360610
209 1 20 0.027059 31.042460 7.326157 11.552120
210 1 20 0.046328 32.580293 5.247074 9.346629
211 1 20 0.046328 33.091824 6.700572 8.377752
212 1 20 0.064048 35.233899 6.750183 9.684665
213 1 20 0.064048 34.628411 5.373999 10.690020
214 1 26 -0.01262 35.800744 3.081843 7.181701
215 1 26 0.011913 38.077296 2.541696 6.459347
216 1 26 0.011913 38.816300 3.564891 7.706676
217 1 26 0.029918 37.657306 2.030243 9.395841
218 1 26 0.029918 37.000254 1.091326 8.002151
219 1 26 0.029918 35.880074 1.739107 9.246811
220 1 26 0.019315 28.129029 12.923284 9.780565
221 1 26 0.019315 26.854267 13.374260 8.607360
222 1 26 0.019315 28.530830 13.065795 8.073336
223 2 5 -0.326742 16.237816 19.744332 15.809260
224 2 5 0.017198 16.599823 21.203959 15.527773
225 2 1 0.394188 18.028656 21.532243 15.945727
226 2 61 -0.513516 18.243760 22.429802 16.744181
227 2 37 -0.318253 19.063912 20.879278 15.322769
228 2 5 0.253336 20.501875 21.141280 15.499139
229 2 5 -0.153575 20.813141 22.609180 15.129276
230 2 5 -0.153575 20.906189 20.871927 16.954368
231 2 5 -0.10529 21.279797 20.174958 14.547157
232 2 79 1.173264 23.116241 20.249341 14.530988
233 2 61 -0.685611 23.760480 19.848504 16.070834
234 2 61 -0.685611 23.636188 19.074781 13.392535
235 2 61 -0.685611 23.663814 21.793902 14.020124
236 2 5 0.006838 15.512945 22.264268 15.932487
237 2 5 0.040646 14.525163 22.251734 17.184886
238 2 5 -0.027518 13.536268 21.069700 17.022550
239 2 1 0.395206 15.200452 22.069161 18.550314
240 2 61 -0.468954 14.477059 22.035223 19.536844
241 2 63 -0.174507 16.536798 21.823831 18.710886
242 2 5 0.150236 17.024446 21.317113 19.914546
243 2 5 -0.054794 18.536352 21.037073 19.919674
244 2 5 0.144718 19.411914 22.293757 19.996320
245 2 63 -0.399142 20.777387 21.902072 20.090933
246 2 5 0.122665 21.596238 23.053907 20.068887
247 2 5 -0.104134 23.074381 22.706446 20.273463
248 2 63 -0.337202 23.878152 23.843365 20.358192
249 2 1 0.759957 24.163141 24.735881 19.359474
250 2 61 -0.581204 23.683921 24.566017 18.249167
251 2 5 0.062457 25.192604 25.866574 19.584827
252 2 5 -0.076044 25.757583 25.728651 21.023530
253 2 5 -0.076044 26.375763 25.628835 18.624743
254 2 5 0.066126 13.748211 23.648096 17.065948
255 2 5 0.074152 12.550348 24.256051 17.932635
256 2 5 0.020526 11.297128 23.335925 17.784446
257 2 1 0.077412 12.916922 24.350361 19.439318
258 2 61 -0.371263 12.244918 23.705333 20.232483
259 2 63 -0.111764 13.940211 25.052449 19.992893
260 2 5 -0.066862 14.839676 25.920024 19.431761
261 2 5 -0.053241 16.246734 25.385793 19.625208
262 2 5 0.028072 17.263081 26.357712 19.057186
263 2 63 -0.278632 18.538314 25.819158 19.252063
264 2 5 -0.042452 19.500345 26.806441 18.984260
265 2 5 0.011714 20.817223 26.104056 18.836272
266 2 63 -0.084543 21.829295 27.013397 18.786463
267 2 1 -0.009992 22.774724 27.164689 17.833788
268 2 61 -0.354227 22.690665 26.612553 16.744568
269 2 5 0.016227 23.938825 28.030841 18.221527
270 2 5 0.078568 24.610602 27.349334 19.491595
271 2 5 0.027761 24.979354 28.239758 17.097930
272 2 5 0.046561 12.142333 25.652321 17.236664
273 2 5 0.107984 11.372228 26.854033 17.953548
274 2 5 -0.029328 10.309907 26.289533 18.924899
275 2 1 0.014276 12.408643 27.707414 18.701271
276 2 61 -0.371205 12.305232 27.815451 19.914525
277 2 63 -0.238097 13.439218 28.401736 18.111168
278 2 5 -0.000365 13.876582 28.598340 16.798774
279 2 5 0.007958 15.363158 28.310259 16.686279
280 2 5 0.014704 15.946527 28.789318 15.346009
281 2 63 -0.388664 17.308116 28.428812 15.195823
282 2 5 0.113896 18.128564 29.216811 16.034109
283 2 5 -0.00626 19.590950 28.970451 15.699063
284 2 63 -0.029346 20.363214 29.642271 16.621892
285 2 1 0.593203 21.720791 29.657660 16.646805
286 2 61 -0.558975 22.334962 29.127475 15.733579
287 2 5 0.123196 22.473718 30.403247 17.768831
288 2 5 -0.021611 23.338019 29.423089 18.692321
289 2 5 -0.052628 23.394443 31.434393 17.088875
290 2 5 -0.009258 10.631709 27.758193 16.872897
291 2 5 0.137918 9.803027 29.067572 17.175910
292 2 5 -0.044654 8.455577 28.730597 17.897907
293 2 1 0.501095 10.573639 30.080368 18.054740
294 2 61 -0.567231 10.101214 30.396479 19.140790
295 2 63 0.013794 11.748514 30.650374 17.664662
296 2 5 -0.104029 12.333813 31.750473 18.295698
297 2 5 0.006748 13.666020 31.385750 18.973630
298 2 5 0.071664 14.316610 32.615112 19.623417
299 2 63 -0.384397 15.450509 32.243350 20.388788
300 2 5 0.125944 16.657076 32.417782 19.670791
301 2 5 0.015801 17.823402 32.216791 20.637459
302 2 63 -0.132493 19.039086 32.348396 19.987781
303 2 1 0.696583 20.240112 32.175655 20.611464
304 2 61 -0.599874 20.264615 31.932084 21.812582
305 2 5 0.067838 21.545176 32.174560 19.793085
306 2 5 0.005441 21.344012 31.115743 18.644022
307 2 5 -0.063474 22.713292 31.764226 20.724732
308 2 5 -0.061231 9.324835 29.761570 15.825914
309 2 5 0.093328 10.136711 29.896174 14.478032
310 2 5 -0.063451 9.315244 30.830516 13.553440
311 2 1 0.648761 11.514833 30.528747 14.611844
312 2 61 -0.524796 12.493063 29.940796 14.173470
313 2 63 -0.344027 11.631038 31.799038 15.085623
314 2 5 -0.137957 12.587552 32.734122 14.707985
315 2 5 0.086443 14.046675 32.315630 14.975132
316 2 5 0.173524 15.008658 33.436640 14.566089
317 2 63 -0.408589 16.358423 33.023798 14.686183
318 2 5 0.086776 16.881810 33.294840 15.972307
319 2 5 0.133865 18.399738 33.410472 15.862274
320 2 63 -0.452331 18.946436 33.723465 17.091679
321 2 1 0.777226 20.267905 33.979365 17.280673
322 2 61 -0.560457 21.059741 33.878387 16.353762
323 2 5 0.026178 20.736754 34.489496 18.619037
324 2 5 -0.005638 21.852302 33.635982 19.297189
325 2 5 -0.105595 21.240786 35.929450 18.431413
326 2 5 -0.063451 10.223031 28.534452 13.721776
327 2 26 0.095459 16.989906 19.051918 15.379910
328 2 26 0.095459 15.270180 19.492003 15.328493
329 2 26 0.095459 16.203369 19.561694 16.903686
330 2 26 0.032263 16.664691 21.313840 14.420293
331 2 27 0.206195 18.802654 20.161314 14.629484
332 2 26 0.04376 20.539012 22.807855 14.071281
333 2 26 0.04376 21.884597 22.842086 15.275931
334 2 26 0.04376 20.261451 23.325470 15.769306
335 2 26 0.04376 21.976925 21.088151 17.129248
336 2 26 0.04376 20.690209 19.819322 17.236364
337 2 26 0.04376 20.350488 21.539814 17.622527
338 2 20 0.008208 21.008327 19.126156 14.796657
339 2 20 0.008208 20.946748 20.351735 13.501485
340 2 26 0.015381 16.027217 23.248781 15.871763
341 2 26 0.015381 14.818232 22.268128 15.060706
342 2 26 0.010954 14.038735 20.092782 17.053912
343 2 26 0.010954 12.960643 21.147980 16.075611
344 2 26 0.010954 12.839470 20.986202 17.866719
345 2 20 0.028447 16.520928 20.340094 20.090799
346 2 20 0.028447 16.770386 21.993226 20.761293
347 2 26 0.037765 18.799740 20.410607 19.041650
348 2 26 0.037765 18.757831 20.447227 20.836448
349 2 20 0.010085 19.117238 22.862787 20.907513
350 2 20 0.010085 19.224129 22.917814 19.094990
351 2 20 0.064583 21.513196 23.528863 19.073140
352 2 20 0.064583 21.315020 23.727538 20.909650
353 2 20 0.134171 23.163779 22.158349 21.235230
354 2 20 0.134171 23.437224 22.039218 19.461428
355 2 26 0.013105 26.213493 24.726760 21.182859
356 2 26 0.013105 24.953807 25.862380 21.779994
357 2 26 0.013105 26.544674 26.489258 21.219192
358 2 26 0.013105 26.856116 24.649301 18.840571
359 2 26 0.013105 27.144951 26.423317 18.734463
360 2 26 0.013105 26.052473 25.559720 17.573116
361 2 26 -0.014706 14.555920 24.400250 17.096206
362 2 26 -0.014706 13.354461 23.674983 16.024251
363 2 26 0.002529 11.409317 22.367607 18.288138
364 2 26 0.002529 11.052331 23.153262 16.716006
365 2 26 0.002529 10.400137 23.765973 18.258626
366 2 20 0.12772 14.757284 26.894753 19.955909
367 2 20 0.12772 14.635681 26.080957 18.372773
368 2 26 0.055769 16.353472 24.413291 19.108274
369 2 26 0.055769 16.441040 25.240454 20.710780
370 2 20 0.052675 17.143148 27.336062 19.582464
371 2 20 0.052675 17.093875 26.464017 17.969871
372 2 20 0.071529 19.309816 27.349458 18.037162
373 2 20 0.071529 19.555877 27.515668 19.841769
374 2 20 0.101738 20.965730 25.544691 19.768852
375 2 20 0.101738 20.806992 25.424197 17.955446
376 2 26 -0.009983 23.856230 27.394225 20.309610
377 2 26 -0.009983 25.430750 28.037519 19.797587
378 2 26 0.014273 25.357421 27.293696 16.691663
379 2 26 0.014273 25.833575 28.841738 17.474163
380 2 26 0.014273 24.570718 28.764016 16.223628
381 2 26 0.024055 13.052249 26.081918 16.799155
382 2 26 0.024055 11.565990 25.375299 16.326178
383 2 26 0.035106 10.735521 25.590031 19.657634
384 2 26 0.035106 9.483120 25.791763 18.376260
385 2 26 0.035106 9.906836 27.070896 19.579331
386 2 20 0.057745 13.723012 29.663052 16.548331
387 2 20 0.057745 13.382272 28.001129 16.024236
388 2 26 0.057193 15.510752 27.220589 16.751285
389 2 26 0.057193 15.869602 28.829329 17.525286
390 2 20 0.094052 15.804050 29.883581 15.214521
391 2 20 0.094052 15.384331 28.302263 14.520857
392 2 20 0.027996 17.927054 30.303781 15.911466
393 2 20 0.027996 17.986304 28.924661 17.093316
394 2 20 0.082244 19.810883 27.881997 15.760327
395 2 20 0.082244 19.808330 29.329970 14.669497
396 2 26 0.012596 22.668688 29.143513 19.530991
397 2 26 0.012596 24.154990 30.001501 19.164617
398 2 26 0.009764 24.138797 30.946770 16.430640
399 2 26 0.009764 23.970567 32.009495 17.838253
400 2 26 0.009764 22.808756 32.134520 16.463466
401 2 26 -0.030336 11.395811 28.106239 16.195615
402 2 26 -0.030336 9.962369 27.090876 16.286420
403 2 26 0.006044 8.543543 28.398250 18.937484
404 2 26 0.006044 7.881376 27.962593 17.335676
405 2 26 0.006044 7.820178 29.641531 17.967441
406 2 20 0.074579 11.661806 32.185102 19.067953
407 2 20 0.074579 12.495783 32.546598 17.544659
408 2 26 0.088143 14.382154 30.971397 18.239163
409 2 26 0.088143 13.465910 30.621601 19.755497
410 2 20 0.053129 13.591415 33.077357 20.326557
411 2 20 0.053129 14.533207 33.394003 18.854832
412 2 20 -0.016681 16.731921 31.655763 18.864618
413 2 20 -0.016681 16.742282 33.447889 19.254936
414 2 20 0.067194 17.754847 32.966670 21.456351
415 2 20 0.067194 17.748498 31.195898 21.074097
416 2 26 -0.197517 20.614182 31.585915 17.961026
417 2 26 -0.197517 20.793703 30.259405 19.100742
418 2 26 0.015232 22.564586 30.745247 21.138543
419 2 26 0.015232 22.792097 32.458931 21.589319
420 2 26 0.015232 23.684248 31.827209 20.199368
421 2 26 0.019378 8.405258 29.230798 15.486960
422 2 26 0.019378 8.975209 30.776068 16.126547
423 2 26 0.019315 9.197213 31.839479 14.005456
424 2 26 0.019315 8.298326 30.420210 13.368977
425 2 26 0.019315 9.816406 30.959560 12.568643
426 2 20 0.115089 12.378241 33.669622 15.269012
427 2 20 0.115089 12.461546 32.954261 13.625151
428 2 26 -0.023095 14.305721 31.426262 14.372352
429 2 26 -0.023095 14.192918 32.082993 16.047127
430 2 20 0.027059 14.783689 34.379522 15.115610
431 2 20 0.027059 14.839656 33.677407 13.494655
432 2 20 0.046328 16.522780 34.264450 16.388472
433 2 20 0.046328 16.618803 32.467675 16.663099
434 2 20 0.064048 18.833779 32.460425 15.482929
435 2 20 0.064048 18.634476 34.225355 15.141553
436 2 26 -0.01262 19.864944 34.555775 19.302492
437 2 26 0.011913 22.112293 34.214366 20.213043
438 2 26 0.011913 22.756764 33.646001 18.660463
439 2 26 0.029918 22.125132 35.956628 17.758387
440 2 26 0.029918 21.527373 36.372097 19.409364
441 2 26 0.029918 20.439450 36.563668 17.993974
442 2 26 0.019315 10.669890 28.681618 12.713979
443 2 26 0.019315 9.210853 28.100443 13.573196
444 2 26 0.019315 10.847431 27.769208 14.208091
445 3 5 -0.326742 6.554972 23.458038 31.303408
446 3 5 0.017198 5.859745 24.787482 31.003352
447 3 1 0.394188 5.207258 24.796316 29.625599
448 3 61 -0.513516 5.514570 25.647082 28.806352
449 3 37 -0.318253 4.193407 23.905551 29.370964
450 3 5 0.253336 3.365077 23.839949 28.155623
451 3 5 -0.153575 2.634309 25.186091 27.949967
452 3 5 -0.153575 4.247924 23.533277 26.938970
453 3 5 -0.10529 2.322175 22.691891 28.354447
454 3 79 1.173264 1.128048 22.346976 27.000411
455 3 61 -0.685611 1.944558 21.860618 25.570863
456 3 61 -0.685611 0.145384 21.048718 27.543470
457 3 61 -0.685611 0.127595 23.709525 26.702019
458 3 5 0.006838 6.671787 26.079367 31.378817
459 3 5 0.040646 8.243865 26.332030 31.283384
460 3 5 -0.027518 8.956500 25.400644 32.296371
461 3 1 0.395206 8.871676 26.045411 29.913185
462 3 61 -0.468954 10.079377 26.208598 29.801305
463 3 63 -0.174507 8.184189 25.508539 28.859183
464 3 5 0.150236 8.866136 24.943740 27.782469
465 3 5 -0.054794 7.956106 24.328190 26.706712
466 3 5 0.144718 7.238276 25.355175 25.822541
467 3 63 -0.399142 6.508077 24.667094 24.812471
468 3 5 0.122665 5.770383 25.601689 24.050851
469 3 5 -0.104134 5.043414 24.934654 22.878643
470 3 63 -0.337202 4.398140 25.861621 22.060007
471 3 1 0.759957 3.311396 26.633243 22.374374
472 3 61 -0.581204 2.811624 26.540602 23.484749
473 3 5 0.062457 2.629196 27.507495 21.297651
474 3 5 -0.076044 3.374543 27.291752 19.953775
475 3 5 -0.076044 1.195820 26.976379 21.093949
476 3 5 0.066126 8.406816 27.863669 31.725152
477 3 5 0.074152 9.715136 28.755443 31.945761
478 3 5 0.020526 10.561226 28.139439 33.104995
479 3 1 0.077412 10.597575 28.812983 30.668515
480 3 61 -0.371263 11.733291 28.363415 30.737770
481 3 63 -0.111764 10.240306 29.282109 29.444272
482 3 5 -0.066862 9.095530 29.904209 29.021102
483 3 5 -0.053241 8.437858 29.071152 27.936612
484 3 5 0.028072 7.195394 29.768066 27.416198
485 3 63 -0.278632 6.623466 28.960765 26.428575
486 3 5 -0.042452 5.638506 29.694713 25.748042
487 3 5 0.011714 4.810854 28.707357 24.980230
488 3 63 -0.084543 3.971368 29.361162 24.130835
489 3 1 -0.009992 2.627397 29.262910 24.039166
490 3 61 -0.354227 1.958241 28.709179 24.901681
491 3 5 0.016227 2.027409 29.854384 22.795838
492 3 5 0.078568 2.672368 29.079819 21.565844
493 3 5 0.027761 0.484464 29.785086 22.738081
494 3 5 0.046561 9.209642 30.184516 32.495895
495 3 5 0.107984 10.030065 31.552283 32.410966
496 3 5 -0.029328 11.534178 31.275471 32.638407
497 3 1 0.014276 9.784078 32.172000 31.026427
498 3 61 -0.371205 10.742835 32.340036 30.286900
499 3 63 -0.238097 8.564130 32.594764 30.551681
500 3 5 -0.000365 7.265427 32.644241 31.064750
501 3 5 0.007958 6.284532 32.022792 30.086382
502 3 5 0.014704 4.822927 32.313158 30.467880
503 3 63 -0.388664 3.905843 31.648355 29.617328
504 3 5 0.113896 3.876735 32.256387 28.342083
505 3 5 -0.00626 2.736770 31.673809 27.521958
506 3 63 -0.029346 2.822022 32.182439 26.243922
507 3 1 0.593203 1.973846 31.890118 25.224601
508 3 61 -0.558975 0.988636 31.205003 25.453216
509 3 5 0.123196 2.208289 32.481408 23.818488
510 3 5 -0.021611 2.522080 31.361196 22.719753
511 3 5 -0.052628 0.932312 33.254037 23.433443
512 3 5 -0.009258 9.532568 32.565324 33.533430
513 3 5 0.137918 10.060607 34.037742 33.748288
514 3 5 -0.044654 11.519383 34.039006 34.316113
515 3 1 0.501095 10.054686 34.877211 32.449367
516 3 61 -0.567231 11.116668 35.327397 32.034467
517 3 63 0.013794 8.914751 35.152718 31.755075
518 3 5 -0.104029 8.825454 36.111174 30.742954
519 3 5 0.006748 8.550075 35.475834 29.368945
520 3 5 0.071664 8.410875 36.545900 28.276973
521 3 63 -0.384397 8.328663 35.951556 26.992557
522 3 5 0.125944 6.990781 35.824182 26.550293
523 3 5 0.015801 7.009557 35.395239 25.083727
524 3 63 -0.132493 5.724639 35.226329 24.596139
525 3 1 0.696583 5.458694 34.805867 23.325797
526 3 61 -0.599874 6.387909 34.602236 22.552682
527 3 5 0.067838 4.013136 34.482027 22.903394
528 3 5 0.005441 3.461473 33.459746 23.967591
529 3 5 -0.063474 4.040778 33.847773 21.489961
530 3 5 -0.061231 9.230185 34.777933 34.886403
531 3 5 0.093328 7.677160 34.680910 35.156119
532 3 5 -0.063451 7.343223 35.746770 36.230876
533 3 1 0.648761 6.790647 34.988207 33.957395
534 3 61 -0.524796 5.940519 34.179662 33.613402
535 3 63 -0.344027 6.852276 36.213677 33.369148
536 3 5 -0.137957 5.797351 36.894501 32.772888
537 3 5 0.086443 5.141834 36.164677 31.584110
538 3 5 0.173524 4.027569 37.024212 30.976651
539 3 63 -0.408589 3.330189 36.319931 29.964537
540 3 5 0.086776 3.916402 36.506742 28.690580
541 3 5 0.133865 2.847351 36.271217 27.626981
542 3 63 -0.452331 3.368826 36.491729 26.366934
543 3 1 0.777226 2.625199 36.447036 25.230050
544 3 61 -0.560457 1.442136 36.138929 25.272414
545 3 5 0.026178 3.243903 36.880643 23.926032
546 3 5 -0.005638 3.191423 35.818711 22.784819
547 3 5 -0.105595 2.532209 38.161753 23.462389
548 3 5 -0.063451 7.290208 33.311305 35.794955
549 3 26 0.095459 5.873709 22.599431 31.135799
550 3 26 0.095459 6.853484 23.416426 32.371249
551 3 26 0.095459 7.430970 23.323631 30.634923
552 3 26 0.032263 4.967196 24.843742 31.668923
553 3 27 0.206195 3.963343 23.243487 30.128006
554 3 26 0.04376 1.979341 25.407325 28.819476
555 3 26 0.04376 2.022014 25.174383 27.028702
556 3 26 0.04376 3.342165 26.029300 27.827452
557 3 26 0.04376 3.660192 23.506412 26.002135
558 3 26 0.04376 4.779950 22.566887 27.070064
559 3 26 0.04376 4.987869 24.331195 26.808127
560 3 20 0.008208 2.864449 21.740742 28.547285
561 3 20 0.008208 1.717775 22.905582 29.262543
562 3 26 0.015381 6.127954 26.918967 30.892250
563 3 26 0.015381 6.458290 26.212478 32.464792
564 3 26 0.010954 8.829701 24.336730 32.051766
565 3 26 0.010954 8.597804 25.576724 33.332951
566 3 26 0.010954 10.048897 25.504933 32.266135
567 3 20 0.028447 9.488635 24.112747 28.183851
568 3 20 0.028447 9.546826 25.687007 27.310378
569 3 26 0.037765 7.237361 23.630114 27.185101
570 3 26 0.037765 8.606344 23.733567 26.027699
571 3 20 0.010085 8.011829 26.005524 25.353962
572 3 20 0.010085 6.572258 25.975952 26.461416
573 3 20 0.064583 4.992607 26.050498 24.697094
574 3 20 0.064583 6.464295 26.348510 23.603093
575 3 20 0.134171 5.804300 24.412107 22.261072
576 3 20 0.134171 4.318016 24.176474 23.246350
577 3 26 0.013105 3.377873 26.218252 19.662895
578 3 26 0.013105 4.431447 27.628912 20.027632
579 3 26 0.013105 2.888538 27.859819 19.130721
580 3 26 0.013105 1.222165 25.920928 20.744468
581 3 26 0.013105 0.650756 27.578690 20.335650
582 3 26 0.013105 0.623397 26.948320 22.035627
583 3 26 -0.014706 7.784864 28.413456 30.997173
584 3 26 -0.014706 7.870052 27.945367 32.697832
585 3 26 0.002529 11.036306 27.187812 32.835480
586 3 26 0.002529 9.945902 27.982495 34.016916
587 3 26 0.002529 11.413941 28.777011 33.389177
588 3 20 0.12772 9.372715 30.888699 28.590330
589 3 20 0.12772 8.401717 30.072756 29.845229
590 3 26 0.055769 8.150209 28.083539 28.344352
591 3 26 0.055769 9.155108 28.920846 27.099769
592 3 20 0.052675 7.496699 30.764637 27.011808
593 3 20 0.052675 6.467628 29.874624 28.241539
594 3 20 0.071529 4.953903 30.235745 26.431247
595 3 20 0.071529 6.124452 30.400298 25.035712
596 3 20 0.101738 5.514135 28.159478 24.340016
597 3 20 0.101738 4.273453 28.019318 25.670137
598 3 26 -0.009983 3.759487 29.321294 21.576038
599 3 26 -0.009983 2.260790 29.573476 20.656570
600 3 26 0.014273 0.102658 28.765223 22.868945
601 3 26 0.014273 0.118934 30.189381 21.770322
602 3 26 0.014273 -0.003337 30.359723 23.536878
603 3 26 0.024055 8.227099 30.381948 32.049189
604 3 26 0.024055 8.940441 30.016104 33.562227
605 3 26 0.035106 11.935200 30.521806 31.946654
606 3 26 0.035106 11.734612 30.960784 33.683947
607 3 26 0.035106 12.146956 32.148757 32.387109
608 3 20 0.057745 6.990263 33.707311 31.183422
609 3 20 0.057745 7.101715 32.149966 32.029013
610 3 26 0.057193 6.428489 30.930761 30.098061
611 3 26 0.057193 6.502521 32.440347 29.082401
612 3 20 0.094052 4.624960 33.406338 30.495555
613 3 20 0.094052 4.645286 31.939868 31.499026
614 3 20 0.027996 3.724260 33.356155 28.408532
615 3 20 0.027996 4.813904 32.038711 27.792682
616 3 20 0.082244 2.831653 30.566423 27.482603