LAMMPS Description

5616  atoms
4572  bonds
5346  angles
6480  dihedrals
1188  impropers

87  atom types
840  bond types
4614  angle types
985  dihedral types
38  improper types

-0.5 40.5 xlo xhi
-0.5 40.5 ylo yhi
-0.5 40.5 zlo zhi

Masses

1 12.01
2 12.01
3 12.01
4 12.01
5 12.01
6 12.01
7 12.01
8 12.01
9 12.01
10 12.01
11 12.01
12 12.01
13 12.01
14 12.01
15 12.01
16 12.01
17 12.01
18 12.01
19 12.01
20 1.008
21 1.008
22 1.008
23 1.008
24 1.008
25 1.008
26 1.008
27 1.008
28 1.008
29 1.008
30 1.008
31 1.008
32 1.008
33 19.00
34 35.45
35 79.90
36 126.9
37 14.01
38 14.01
39 14.01
40 14.01
41 14.01
42 14.01
43 14.01
44 14.01
45 14.01
46 14.01
47 14.01
48 14.01
49 14.01
50 14.01
51 14.01
52 14.01
53 14.01
54 14.01
55 14.01
56 14.01
57 14.01
58 14.01
59 14.01
60 14.01
61 16.00
62 16.00
63 16.00
64 16.00
65 30.97
66 30.97
67 30.97
68 30.97
69 30.97
70 30.97
71 30.97
72 30.97
73 30.97
74 30.97
75 30.97
76 32.06
77 32.06
78 32.06
79 32.06
80 32.06
81 32.06
82 32.06
83 32.06
84 24.305
85 40.08
86 19.02
87 35.45

Atoms

1 1 5 -0.051233 21.883844 26.927961 23.625268
2 1 26 -0.000556 21.415462 27.853187 23.227374
3 1 26 -0.000556 21.249051 26.063648 23.335484
4 1 5 0.030247 22.039843 27.019948 25.151727
5 1 26 0.028561 22.655747 27.924930 25.352855
6 1 6 0.077933 22.772470 25.781828 25.643666
7 1 6 -0.200132 22.215270 24.496441 25.497200
8 1 25 0.120991 21.239439 24.365498 25.048672
9 1 6 -0.123165 22.918006 23.365706 25.923014
10 1 25 0.137797 22.477565 22.384790 25.797488
11 1 6 -0.043312 24.186275 23.498432 26.497007
12 1 79 1.139467 25.090619 22.033470 27.004305
13 1 6 -0.123165 24.746533 24.771466 26.651892
14 1 25 0.137797 25.728368 24.888818 27.091185
15 1 6 -0.200132 24.045705 25.904985 26.228747
16 1 25 0.120991 24.503198 26.878729 26.350198
17 1 61 -0.686299 25.644475 21.232312 25.591152
18 1 61 -0.686299 26.428242 22.490841 27.979320
19 1 61 -0.686299 24.034472 21.018140 27.898641
20 1 5 -0.167947 20.650749 27.244437 25.807792
21 1 26 0.053829 20.199182 28.114225 25.280319
22 1 26 0.053829 19.987581 26.372590 25.619863
23 1 5 0.061335 20.664225 27.604713 27.320458
24 1 26 0.066322 21.317937 28.498376 27.436554
25 1 6 0.022005 21.212058 26.464538 28.160594
26 1 6 -0.142215 20.574179 25.210312 28.200887
27 1 25 0.122111 19.668577 25.035442 27.635047
28 1 6 -0.138255 21.103774 24.170722 28.972260
29 1 25 0.125927 20.599052 23.214067 28.989164
30 1 6 -0.052124 22.276901 24.368879 29.710708
31 1 79 1.076745 22.978522 23.045914 30.698559
32 1 6 -0.138255 22.914000 25.612225 29.677574
33 1 25 0.125927 23.821304 25.774239 30.245137
34 1 6 -0.142215 22.387201 26.653028 28.910043
35 1 25 0.122111 22.901289 27.605674 28.898079
36 1 61 -0.647047 22.136486 21.583085 30.382212
37 1 61 -0.647047 24.631517 22.872472 30.275866
38 1 61 -0.647047 22.840476 23.466279 32.354933
39 1 5 -0.099102 19.231526 28.045606 27.746200
40 1 26 0.032456 18.952381 28.873392 27.057014
41 1 26 0.032456 18.503334 27.224839 27.571753
42 1 5 0.015778 19.081006 28.602366 29.192620
43 1 26 0.022425 19.844358 29.402273 29.320586
44 1 6 -0.035969 19.278343 27.509037 30.228755
45 1 6 -0.131756 18.420835 26.392317 30.269015
46 1 25 0.101496 17.615822 26.286361 29.554300
47 1 6 -0.139767 18.582617 25.409186 31.245593
48 1 25 0.14135 17.906214 24.564546 31.268613
49 1 6 -0.051918 19.600939 25.521137 32.195120
50 1 79 1.157597 19.760582 24.260624 33.459844
51 1 6 -0.139767 20.469696 26.618681 32.156045
52 1 25 0.14135 21.262620 26.718366 32.884959
53 1 6 -0.131756 20.310687 27.606472 31.178619
54 1 25 0.101496 20.984632 28.453870 31.171674
55 1 61 -0.691163 19.978072 22.743591 32.687028
56 1 61 -0.691163 21.106652 24.615539 34.465203
57 1 61 -0.691163 18.321916 24.257438 34.395253
58 1 5 -0.000586 17.683704 29.286045 29.344504
59 1 26 -0.010501 17.597975 30.026241 28.518362
60 1 26 -0.010501 16.872917 28.541467 29.194890
61 1 5 -0.032579 17.441624 30.080234 30.663702
62 1 26 0.137701 18.249047 30.841870 30.740178
63 1 6 -0.011695 17.487150 29.170981 31.900811
64 1 6 -0.095646 16.565136 28.120883 32.076639
65 1 25 0.111209 15.840906 27.894594 31.305191
66 1 6 -0.184492 16.510671 27.409144 33.285364
67 1 25 0.122822 15.742185 26.657317 33.411897
68 1 6 -0.022823 17.367260 27.738474 34.352902
69 1 5 0.164417 17.158826 27.115605 35.731885
70 1 6 -0.184492 18.364538 28.705243 34.138145
71 1 25 0.122822 19.050332 28.966536 34.933750
72 1 6 -0.095646 18.423637 29.413366 32.926586
73 1 25 0.111209 19.157949 30.201698 32.820120
74 1 26 -0.040461 18.094921 26.592217 36.021259
75 1 5 -0.072194 16.776455 28.140407 36.866881
76 1 26 0.004392 17.614153 28.858515 36.991328
77 1 26 0.004392 16.700080 27.569459 37.817107
78 1 5 0.060914 16.075628 30.887454 30.553967
79 1 26 -0.029666 16.116688 31.503540 29.629424
80 1 26 -0.029666 15.243742 30.163857 30.419028
81 1 5 -0.080441 15.727272 31.875966 31.729749
82 1 26 0.161633 16.545087 32.629041 31.781161
83 1 6 -0.033909 15.646874 31.112584 33.007403
84 1 6 -0.046469 14.678425 30.105695 33.173458
85 1 25 0.119472 13.979036 29.862952 32.384552
86 1 6 -0.154837 14.607029 29.399919 34.363029
87 1 25 0.088671 13.857984 28.625594 34.473418
88 1 6 -0.050237 15.501205 29.692867 35.398208
89 1 5 0.18978 15.426863 28.921639 36.672211
90 1 6 -0.154837 16.466742 30.702954 35.233799
91 1 25 0.088671 17.166663 30.945010 36.022384
92 1 6 -0.046469 16.538338 31.408538 34.044033
93 1 25 0.119472 17.287934 32.182215 33.933020
94 1 26 -0.043781 14.611707 28.165682 36.618603
95 1 5 -0.103886 15.075457 29.902801 37.847240
96 1 26 0.015134 15.901178 30.632804 37.986418
97 1 26 0.015134 15.029306 29.288398 38.772863
98 1 5 0.02372 14.378671 32.662262 31.535935
99 1 26 -0.032673 14.457897 33.233455 30.586082
100 1 26 -0.032673 13.539391 31.946408 31.408980
101 1 5 -0.070608 13.992448 33.688324 32.671756
102 1 26 0.047784 14.803422 34.446539 32.723883
103 1 6 -0.002343 13.771429 33.068732 34.052553
104 1 6 -0.14064 12.771425 32.103135 34.263020
105 1 25 0.145001 12.091243 31.840399 33.462862
106 1 6 -0.235918 12.707440 31.392215 35.473730
107 1 25 0.13736 11.977852 30.598179 35.571197
108 1 6 -0.03349 13.643976 31.628235 36.500944
109 1 5 0.334804 13.708110 30.692223 37.718697
110 1 6 -0.235918 14.557730 32.687764 36.336606
111 1 25 0.13736 15.282035 32.911362 37.108839
112 1 6 -0.14064 14.618190 33.400823 35.127856
113 1 25 0.145001 15.387323 34.152979 35.006071
114 1 26 -0.102684 12.903506 29.928695 37.631613
115 1 5 -0.093356 13.435111 31.485515 39.001880
116 1 26 -0.000797 12.448472 31.991741 38.934713
117 1 26 -0.000797 13.413774 30.801474 39.877016
118 1 26 -0.000556 22.880018 26.815620 23.145579
119 1 26 -0.040461 16.349641 26.355125 35.684229
120 1 26 0.047784 13.060035 34.215156 32.376331
121 1 26 -0.000797 14.221014 32.250593 39.174637
122 2 5 -0.051233 14.526225 8.823607 29.741285
123 2 26 -0.000556 14.694329 9.919004 29.816053
124 2 26 -0.000556 15.493270 8.339131 29.488140
125 2 5 0.030247 13.453694 8.516908 28.683699
126 2 26 0.028561 12.536201 9.064404 28.995526
127 2 6 0.077933 13.182172 7.020927 28.682478
128 2 6 -0.200132 14.186915 6.096062 28.337136
129 2 25 0.120991 15.171552 6.434605 28.043116
130 2 6 -0.123165 13.930573 4.722551 28.375513
131 2 25 0.137797 14.715936 4.025361 28.112699
132 2 6 -0.043312 12.672061 4.250644 28.761573
133 2 79 1.139467 12.371066 2.483059 28.841239
134 2 6 -0.123165 11.665333 5.161383 29.101496
135 2 25 0.137797 10.687993 4.810356 29.405362
136 2 6 -0.200132 11.917596 6.536127 29.062522
137 2 25 0.120991 11.126255 7.221445 29.338831
138 2 61 -0.686299 13.195303 1.862738 30.212897
139 2 61 -0.686299 10.685301 2.191741 28.990939
140 2 61 -0.686299 12.964606 1.759321 27.402458
141 2 5 -0.167947 13.894745 9.088314 27.309156
142 2 26 0.053829 14.153703 10.155629 27.489298
143 2 26 0.053829 14.822071 8.585293 26.959498
144 2 5 0.061335 12.813654 9.079596 26.191431
145 2 26 0.066322 11.927225 9.621460 26.591526
146 2 6 0.022005 12.413396 7.664348 25.813524
147 2 6 -0.142215 13.345674 6.756680 25.276317
148 2 25 0.122111 14.372919 7.055210 25.113474
149 2 6 -0.138255 12.957221 5.454039 24.946971
150 2 25 0.125927 13.688963 4.771426 24.536105
151 2 6 -0.052124 11.635134 5.040487 25.151560
152 2 79 1.076745 11.118396 3.371231 24.745452
153 2 6 -0.138255 10.703600 5.937049 25.681961
154 2 25 0.125927 9.679570 5.625896 25.843585
155 2 6 -0.142215 11.087324 7.238919 26.010263
156 2 25 0.122111 10.347961 7.913386 26.423058
157 2 61 -0.647047 12.492814 2.427825 24.333232
158 2 61 -0.647047 10.336288 2.697998 26.115199
159 2 61 -0.647047 10.026540 3.441312 23.425498
160 2 5 -0.099102 13.333172 9.912821 24.981428
161 2 26 0.032456 13.592182 10.913914 25.392351
162 2 26 0.032456 14.274563 9.476973 24.583717
163 2 5 0.015778 12.320095 10.156506 23.824249
164 2 26 0.022425 11.392105 10.570676 24.278374
165 2 6 -0.035969 12.016707 8.869945 23.075514
166 2 6 -0.131756 13.038951 8.167428 22.408061
167 2 25 0.101496 14.060115 8.523643 22.428703
168 2 6 -0.139767 12.749376 7.006536 21.690497
169 2 25 0.14135 13.545799 6.487041 21.173484
170 2 6 -0.051918 11.439271 6.526081 21.628008
171 2 79 1.157597 11.092472 5.052497 20.667703
172 2 6 -0.139767 10.416804 7.206865 22.300288
173 2 25 0.14135 9.397772 6.846341 22.260569
174 2 6 -0.131756 10.703069 8.371134 23.020641
175 2 25 0.101496 9.897358 8.890526 23.524024
176 2 61 -0.691163 12.054519 3.769463 21.279447
177 2 61 -0.691163 9.425657 4.658849 20.791731
178 2 61 -0.691163 11.492664 5.375519 19.030553
179 2 5 -0.000586 12.880315 11.255797 22.864743
180 2 26 -0.010501 13.129362 12.136339 23.497492
181 2 26 -0.010501 13.830123 10.913814 22.400989
182 2 5 -0.032579 11.906392 11.775507 21.764290
183 2 26 0.137701 10.996177 12.150074 22.283018
184 2 6 -0.011695 11.505431 10.667455 20.779048
185 2 6 -0.095646 12.460561 10.019381 19.971917
186 2 25 0.111209 13.512506 10.249442 20.078363
187 2 6 -0.184492 12.061073 9.132854 18.959478
188 2 25 0.122822 12.817428 8.708610 18.311582
189 2 6 -0.022823 10.696547 8.882730 18.720003
190 2 5 0.164417 10.259676 8.096136 17.485734
191 2 6 -0.184492 9.749513 9.436252 19.598676
192 2 25 0.122822 8.694006 9.246720 19.451846
193 2 6 -0.095646 10.149129 10.318421 20.615972
194 2 25 0.111209 9.388203 10.783873 21.229456
195 2 26 -0.040461 9.673860 7.215422 17.825012
196 2 5 -0.072194 9.395237 8.916059 16.453691
197 2 26 0.004392 8.453769 9.229689 16.951866
198 2 26 0.004392 9.108569 8.221154 15.635355
199 2 5 0.060914 12.552777 13.031918 21.034078
200 2 26 -0.029666 12.828594 13.775030 21.813653
201 2 26 -0.029666 13.499028 12.713471 20.547213
202 2 5 -0.080441 11.655897 13.797633 19.989926
203 2 26 0.161633 10.757542 14.166095 20.533783
204 2 6 -0.033909 11.253638 12.858961 18.904247
205 2 6 -0.046469 12.227785 12.269169 18.078127
206 2 25 0.119472 13.280559 12.479013 18.212559
207 2 6 -0.154837 11.848835 11.398436 17.069901
208 2 25 0.088671 12.611396 10.950214 16.445056
209 2 6 -0.050237 10.494013 11.108635 16.876418
210 2 5 0.18978 10.093200 10.161437 15.796803
211 2 6 -0.154837 9.519478 11.702032 17.699661
212 2 25 0.088671 8.466829 11.491441 17.565763
213 2 6 -0.046469 9.898493 12.572561 18.708149
214 2 25 0.119472 9.136213 13.020129 19.333774
215 2 26 -0.043781 10.992314 9.789870 15.256103
216 2 5 -0.103886 9.201921 10.921796 14.750698
217 2 26 0.015134 8.254546 11.247378 15.230870
218 2 26 0.015134 8.928166 10.181843 13.967164
219 2 5 0.02372 12.350542 15.047037 19.333413
220 2 26 -0.032673 12.634963 15.741033 20.153312
221 2 26 -0.032673 13.293652 14.736573 18.836311
222 2 5 -0.070608 11.487664 15.869337 18.298366
223 2 26 0.047784 10.591315 16.244807 18.837687
224 2 6 -0.002343 11.056778 15.089943 17.054892
225 2 6 -0.14064 12.007764 14.539419 16.177834
226 2 25 0.145001 13.062871 14.726571 16.331627
227 2 6 -0.235918 11.613129 13.656704 15.157834
228 2 25 0.13736 12.378752 13.186318 14.553807
229 2 6 -0.03349 10.258595 13.301587 14.993198
230 2 5 0.334804 9.868148 12.166711 14.032594
231 2 6 -0.235918 9.298065 13.958723 15.786992
232 2 25 0.13736 8.246723 13.726032 15.679787
233 2 6 -0.14064 9.692979 14.844241 16.803399
234 2 25 0.145001 8.933161 15.267510 17.448113
235 2 26 -0.102684 10.783716 11.791707 13.523622
236 2 5 -0.093356 8.937323 12.704835 12.939713
237 2 26 -0.000797 9.429151 13.540253 12.397113
238 2 26 -0.000797 8.706884 11.903797 12.205230
239 2 26 -0.000556 14.195065 8.459807 30.737812
240 2 26 -0.040461 11.153052 7.716987 16.943974
241 2 26 0.047784 12.073234 16.753127 17.966334
242 2 26 -0.000797 7.981553 13.069469 13.371430
243 3 5 -0.051233 36.408197 17.305557 16.791422
244 3 26 -0.000556 37.112158 17.614143 17.593269
245 3 26 -0.000556 36.654312 17.878544 15.872135
246 3 5 0.030247 34.955445 17.550075 17.230282
247 3 26 0.028561 34.806594 16.970420 18.168698
248 3 6 0.077933 34.023484 17.024474 16.150061
249 3 6 -0.200132 34.020448 17.577888 14.854735
250 3 25 0.120991 34.669608 18.407258 14.607134
251 3 6 -0.123165 33.182442 17.059293 13.863514
252 3 25 0.137797 33.197049 17.492708 12.871607
253 3 6 -0.043312 32.338758 15.980622 14.146812
254 3 79 1.139467 31.296302 15.303033 12.852415
255 3 6 -0.123165 32.330324 15.426980 15.432076
256 3 25 0.137797 31.685204 14.589982 15.664460
257 3 6 -0.200132 33.165946 15.944316 16.426650
258 3 25 0.120991 33.149056 15.493695 17.410969
259 3 61 -0.686299 32.296678 14.433572 11.762050
260 3 61 -0.686299 30.130692 14.248535 13.544128
261 3 61 -0.686299 30.508921 16.598128 12.046848
262 3 5 -0.167947 34.756888 19.051555 17.571653
263 3 26 0.053829 35.565580 19.312413 18.290431
264 3 26 0.053829 34.913247 19.678836 16.667609
265 3 5 0.061335 33.414727 19.418564 18.265950
266 3 26 0.066322 33.333140 18.780710 19.174760
267 3 6 0.022005 32.226784 19.158003 17.356638
268 3 6 -0.142215 32.076801 19.836699 16.132517
269 3 25 0.122111 32.807655 20.569551 15.816842
270 3 6 -0.138255 30.980690 19.571505 15.305203
271 3 25 0.125927 30.884067 20.103099 14.368032
272 3 6 -0.052124 30.022470 18.624786 15.687742
273 3 79 1.076745 28.614443 18.262247 14.636846
274 3 6 -0.138255 30.163509 17.949173 16.902879
275 3 25 0.125927 29.427713 17.215674 17.206458
276 3 6 -0.142215 31.255549 18.212623 17.732298
277 3 25 0.122111 31.344168 17.673458 18.666863
278 3 61 -0.647047 28.806297 19.053455 13.124844
279 3 61 -0.647047 28.535793 16.565098 14.403091
280 3 61 -0.647047 27.190902 18.810383 15.419417
281 3 5 -0.099102 33.492187 20.892761 18.764961
282 3 26 0.032456 34.397682 20.946868 19.409385
283 3 26 0.032456 33.664494 21.584110 17.912493
284 3 5 0.015778 32.299435 21.392299 19.632470
285 3 26 0.022425 32.156789 20.655781 20.454739
286 3 6 -0.035969 31.030621 21.518964 18.806665
287 3 6 -0.131756 30.969418 22.403633 17.712306
288 3 25 0.101496 31.828809 22.997670 17.431844
289 3 6 -0.139767 29.790522 22.544364 16.979623
290 3 25 0.14135 29.758548 23.238375 16.149688
291 3 6 -0.051918 28.655852 21.805725 17.323209
292 3 79 1.157597 27.145122 22.035537 16.385771
293 3 6 -0.139767 28.708683 20.911330 18.399375
294 3 25 0.14135 27.837760 20.332926 18.676726
295 3 6 -0.131756 29.888685 20.767506 19.136455
296 3 25 0.101496 29.906844 20.079948 19.972678
297 3 61 -0.691163 27.473380 21.688030 14.737310
298 3 61 -0.691163 25.925893 20.985155 16.984761
299 3 61 -0.691163 26.646634 23.667437 16.567899
300 3 5 -0.000586 32.678803 22.750539 20.306416
301 3 26 -0.010501 33.642129 22.586049 20.838106
302 3 26 -0.010501 32.866661 23.524804 19.532220
303 3 5 -0.032579 31.682702 23.295089 21.374531
304 3 26 0.137701 31.568167 22.504237 22.148679
305 3 6 -0.011695 30.306595 23.612879 20.770719
306 3 6 -0.095646 30.150135 24.592357 19.770782
307 3 25 0.111209 31.014504 25.098757 19.361792
308 3 6 -0.184492 28.871244 24.990803 19.350977
309 3 25 0.122822 28.787228 25.796735 18.633176
310 3 6 -0.022823 27.717187 24.429771 19.929972
311 3 5 0.164417 26.339090 25.017423 19.632445
312 3 6 -0.184492 27.871657 23.371066 20.841349
313 3 25 0.122822 27.002602 22.906562 21.289184
314 3 6 -0.095646 29.151174 22.967564 21.257077
315 3 25 0.111209 29.233553 22.198286 22.014336
316 3 26 -0.040461 25.703357 24.212457 19.206043
317 3 5 -0.072194 25.604443 25.639378 20.880687
318 3 26 0.004392 25.427170 24.833706 21.623903
319 3 26 0.004392 24.605362 25.985456 20.538909
320 3 5 0.060914 32.326897 24.549558 22.110000
321 3 26 -0.029666 33.321304 24.242338 22.500893
322 3 26 -0.029666 32.511252 25.347115 21.359167
323 3 5 -0.080441 31.536884 25.150903 23.332797
324 3 26 0.161633 31.441205 24.343843 24.093117
325 3 6 -0.033909 30.188617 25.594551 22.877859
326 3 6 -0.046469 30.063253 26.614427 21.916908
327 3 25 0.119472 30.933762 27.093006 21.488400
328 3 6 -0.154837 28.808137 27.023943 21.498246
329 3 25 0.088671 28.729101 27.807861 20.755239
330 3 6 -0.050237 27.666376 26.419749 22.035177
331 3 5 0.18978 26.318180 26.856935 21.571885
332 3 6 -0.154837 27.791679 25.402975 22.999563
333 3 25 0.088671 26.921178 24.923828 23.427338
334 3 6 -0.046469 29.046883 24.993224 23.417997
335 3 25 0.119472 29.126214 24.208639 24.160241
336 3 26 -0.043781 26.414572 27.660979 20.808311
337 3 5 -0.103886 25.528034 27.461335 22.787297
338 3 26 0.015134 25.342763 26.670559 23.545214
339 3 26 0.015134 24.534335 27.773676 22.398191
340 3 5 0.02372 32.250689 26.367513 24.029140
341 3 26 -0.032673 33.248723 26.018774 24.371293
342 3 26 -0.032673 32.431237 27.173960 23.287520
343 3 5 -0.070608 31.516566 26.993346 25.278722
344 3 26 0.047784 31.423172 26.192853 26.044081
345 3 6 -0.002343 30.140824 27.593468 24.984561
346 3 6 -0.14064 29.991361 28.653633 24.073301
347 3 25 0.145001 30.862882 29.111595 23.623134
348 3 6 -0.235918 28.713305 29.061742 23.654566
349 3 25 0.13736 28.636846 29.824355 22.889799
350 3 6 -0.03349 27.555097 28.417025 24.135053
351 3 5 0.334804 26.186250 28.712944 23.501141
352 3 6 -0.235918 27.705067 27.448115 25.146625
353 3 25 0.13736 26.839340 26.941963 25.553175
354 3 6 -0.14064 28.982693 27.043827 25.567821
355 3 25 0.145001 29.062157 26.238497 26.287033
356 3 26 -0.102684 26.309570 29.498386 22.722798
357 3 5 -0.093356 25.231902 29.277939 24.559631
358 3 26 -0.000797 25.668663 30.190431 25.018793
359 3 26 -0.000797 24.263439 29.556104 24.091728
360 3 26 -0.000556 36.570105 16.224327 16.591895
361 3 26 -0.040461 26.427311 25.817455 18.865930
362 3 26 0.047784 32.157776 27.793034 25.707175
363 3 26 -0.000797 25.033487 28.532851 25.358573
364 4 5 -0.051233 38.664926 19.771256 16.496557
365 4 26 -0.000556 38.658637 18.873001 17.149890
366 4 26 -0.000556 39.720808 20.073092 16.329277
367 4 5 0.030247 37.853989 20.907631 17.139914
368 4 26 0.028561 36.826834 20.510829 17.302031
369 4 6 0.077933 37.803696 22.080149 16.173292
370 4 6 -0.200132 38.975711 22.758637 15.785759
371 4 25 0.120991 39.938413 22.471278 16.187255
372 4 6 -0.123165 38.915607 23.811827 14.868757
373 4 25 0.137797 39.826765 24.318569 14.577306
374 4 6 -0.043312 37.688896 24.201744 14.322186
375 4 79 1.139467 37.634254 25.531498 13.117997
376 4 6 -0.123165 36.517939 23.537610 14.704648
377 4 25 0.137797 35.562361 23.826382 14.287237
378 4 6 -0.200132 36.574004 22.484798 15.623083
379 4 25 0.120991 35.656308 21.979700 15.896831
380 4 61 -0.686299 38.279774 24.941048 11.641418
381 4 61 -0.686299 36.008136 26.032620 12.886274
382 4 61 -0.686299 38.572926 26.843161 13.705035
383 4 5 -0.167947 38.447637 21.251523 18.532652
384 4 26 0.053829 38.514943 20.287183 19.084187
385 4 26 0.053829 39.484777 21.636966 18.427782
386 4 5 0.061335 37.596545 22.206545 19.416801
387 4 26 0.066322 36.584637 21.751235 19.507277
388 4 6 0.022005 37.476808 23.585784 18.792855
389 4 6 -0.142215 38.610162 24.388879 18.564500
390 4 25 0.122111 39.596583 24.038865 18.838970
391 4 6 -0.138255 38.477133 25.651217 17.977097
392 4 25 0.125927 39.360507 26.252624 17.809232
393 4 6 -0.052124 37.212673 26.126624 17.608416
394 4 79 1.076745 37.020901 27.738450 16.844479
395 4 6 -0.138255 36.082850 25.335903 17.834608
396 4 25 0.125927 35.101581 25.695334 17.552659
397 4 6 -0.142215 36.211572 24.075859 18.422497
398 4 25 0.122111 35.321598 23.480998 18.583898
399 4 61 -0.647047 38.567383 28.389725 16.479516
400 4 61 -0.647047 36.110671 27.549923 15.403270
401 4 61 -0.647047 36.184258 28.765000 17.933314
402 4 5 -0.099102 38.199711 22.234572 20.853351
403 4 26 0.032456 38.235233 21.173759 21.187335
404 4 26 0.032456 39.249542 22.597301 20.828118
405 4 5 0.015778 37.385815 23.011796 21.929577
406 4 26 0.022425 36.342031 22.626548 21.897467
407 4 6 -0.035969 37.408344 24.507697 21.665644
408 4 6 -0.131756 38.623260 25.220426 21.666038
409 4 25 0.101496 39.562684 24.713172 21.840019
410 4 6 -0.139767 38.635698 26.600250 21.460236
411 4 25 0.14135 39.577718 27.132980 21.476498
412 4 6 -0.051918 37.440258 27.291162 21.248859
413 4 79 1.157597 37.485119 29.069184 21.024073
414 4 6 -0.139767 36.227365 26.591571 21.230607
415 4 25 0.14135 35.294048 27.113583 21.068114
416 4 6 -0.131756 36.210725 25.208226 21.436655
417 4 25 0.101496 35.262117 24.686263 21.431010
418 4 61 -0.691163 38.495485 29.419258 19.681483
419 4 61 -0.691163 35.896665 29.658214 20.743944
420 4 61 -0.691163 38.121484 29.772384 22.454215
421 4 5 -0.000586 37.945750 22.675065 23.349445
422 4 26 -0.010501 37.949105 21.566018 23.437508
423 4 26 -0.010501 39.002179 23.007886 23.435142
424 4 5 -0.032579 37.120368 23.202756 24.561843
425 4 26 0.137701 36.087986 22.802145 24.454286
426 4 6 -0.011695 37.064730 24.737321 24.597436
427 4 6 -0.095646 38.231532 25.512870 24.741763
428 4 25 0.111209 39.203592 25.038207 24.767093
429 4 6 -0.184492 38.150536 26.899799 24.942814
430 4 25 0.122822 39.063361 27.453417 25.121925
431 4 6 -0.022823 36.900876 27.543633 25.018110
432 4 5 0.164417 36.808906 29.004758 25.453611
433 4 6 -0.184492 35.742665 26.791316 24.757548
434 4 25 0.122822 34.768573 27.262173 24.789381
435 4 6 -0.095646 35.823539 25.404528 24.549975
436 4 25 0.111209 34.906533 24.843060 24.424005
437 4 26 -0.040461 36.303810 29.576344 24.646075
438 4 5 -0.072194 36.034952 29.241762 26.806188
439 4 26 0.004392 34.984534 28.906394 26.675596
440 4 26 0.004392 36.001657 30.338559 26.981322
441 4 5 0.060914 37.700691 22.585300 25.907787
442 4 26 -0.029666 37.723470 21.479613 25.793926
443 4 26 -0.029666 38.754429 22.916031 26.026485
444 4 5 -0.080441 36.905072 22.877489 27.235410
445 4 26 0.161633 35.880610 22.462886 27.104382
446 4 6 -0.033909 36.841937 24.349971 27.457734
447 4 6 -0.046469 38.022319 25.089954 27.653729
448 4 25 0.119472 38.993068 24.612454 27.644666
449 4 6 -0.154837 37.958305 26.457878 27.861059
450 4 25 0.088671 38.876474 27.013355 28.006813
451 4 6 -0.050237 36.715531 27.099964 27.875256
452 4 5 0.18978 36.653938 28.574624 28.087361
453 4 6 -0.154837 35.534770 26.359207 27.683808
454 4 25 0.088671 34.564156 26.836897 27.691974
455 4 6 -0.046469 35.598831 24.991255 27.476144
456 4 25 0.119472 34.680890 24.435707 27.329362
457 4 26 -0.043781 37.679017 28.989369 28.213940
458 4 5 -0.103886 35.864886 28.870761 29.412712
459 4 26 0.015134 34.810231 28.539209 29.303785
460 4 26 0.015134 35.844371 29.976138 29.531542
461 4 5 0.02372 37.520185 22.207871 28.519076
462 4 26 -0.032673 37.551142 21.111268 28.342262
463 4 26 -0.032673 38.571557 22.539843 28.650860
464 4 5 -0.070608 36.747948 22.444655 29.875410
465 4 26 0.047784 35.725249 22.027259 29.752308
466 4 6 -0.002343 36.662422 23.904897 30.322316
467 4 6 -0.14064 37.823763 24.653080 30.583452
468 4 25 0.145001 38.796560 24.179685 30.544823
469 4 6 -0.235918 37.748299 26.040857 30.792497
470 4 25 0.13736 38.668891 26.598966 30.907898
471 4 6 -0.03349 36.509978 26.713168 30.742156
472 4 5 0.334804 36.463999 28.249735 30.741146
473 4 6 -0.235918 35.339011 25.940522 30.614057
474 4 25 0.13736 34.368051 26.417482 30.587554
475 4 6 -0.14064 35.414989 24.552867 30.409547
476 4 25 0.145001 34.499501 24.002760 30.232348
477 4 26 -0.102684 37.499909 28.643310 30.840823
478 4 5 -0.093356 35.676584 28.749280 31.958041
479 4 26 -0.000797 36.133048 28.360770 32.893418
480 4 26 -0.000797 35.698185 29.859309 31.998013
481 4 26 -0.000556 38.216227 19.487040 15.520353
482 4 26 -0.040461 37.829674 29.427093 25.576273
483 4 26 0.047784 37.251069 21.866268 30.679499
484 4 26 -0.000797 34.616847 28.421199 31.911607
485 5 5 -0.051233 32.405838 2.077750 0.983028
486 5 26 -0.000556 31.321243 2.317326 0.982057
487 5 26 -0.000556 32.519677 0.977959 1.090156
488 5 5 0.030247 33.119190 2.826882 2.120044
489 5 26 0.028561 32.926466 3.910536 1.954718
490 5 6 0.077933 34.611526 2.551645 2.025896
491 5 6 -0.200132 35.125996 1.249894 2.183722
492 5 25 0.120991 34.467856 0.418300 2.397901
493 5 6 -0.123165 36.497137 1.008841 2.058900
494 5 25 0.137797 36.875003 0.001306 2.177347
495 5 6 -0.043312 37.374477 2.059269 1.771724
496 5 79 1.139467 39.127428 1.726197 1.578000
497 5 6 -0.123165 36.874103 3.357183 1.618304
498 5 25 0.137797 37.540869 4.178894 1.392551
499 5 6 -0.200132 35.503302 3.602373 1.744256
500 5 25 0.120991 35.138123 4.613019 1.612090
501 5 61 -0.686299 39.355211 0.921496 0.079273
502 5 61 -0.686299 39.999392 3.205622 1.585705
503 5 61 -0.686299 39.645394 0.734733 2.879880
504 5 5 -0.167947 32.482063 2.441136 3.482274
505 5 26 0.053829 31.386818 2.600262 3.364851
506 5 26 0.053829 32.631280 1.359126 3.687731
507 5 5 0.061335 32.923070 3.295333 4.704568
508 5 26 0.066322 32.720944 4.359648 4.447996
509 5 6 0.022005 34.401293 3.119043 5.004111
510 5 6 -0.142215 34.933357 1.865655 5.361212
511 5 25 0.122111 34.292024 0.997475 5.437540
512 5 6 -0.138255 36.300441 1.724365 5.620743
513 5 25 0.125927 36.689839 0.752481 5.892823
514 5 6 -0.052124 37.153398 2.830755 5.525015
515 5 79 1.076745 38.911425 2.669339 5.843834
516 5 6 -0.138255 36.631688 4.078660 5.173654
517 5 25 0.125927 37.283681 4.939257 5.097140
518 5 6 -0.142215 35.267064 4.223926 4.915599
519 5 25 0.122111 34.887927 5.200257 4.641745
520 5 61 -0.647047 39.312863 1.009725 6.026852
521 5 61 -0.647047 39.766330 3.334747 4.514356
522 5 61 -0.647047 39.290815 3.535056 7.274195
523 5 5 -0.099102 32.007153 2.950368 5.917153
524 5 26 0.032456 30.964526 3.116033 5.565564
525 5 26 0.032456 32.090584 1.872746 6.174301
526 5 5 0.015778 32.189951 3.825283 7.192252
527 5 26 0.022425 32.119685 4.890160 6.875975
528 5 6 -0.035969 33.527985 3.556459 7.859549
529 5 6 -0.131756 33.841575 2.275038 8.353134
530 5 25 0.101496 33.141418 1.456583 8.253115
531 5 6 -0.139767 35.056258 2.041700 8.998520
532 5 25 0.14135 35.274510 1.053541 9.382415
533 5 6 -0.051918 35.977805 3.078815 9.160564
534 5 79 1.157597 37.514147 2.756959 10.026572
535 5 6 -0.139767 35.684366 4.353416 8.660413
536 5 25 0.14135 36.388526 5.165904 8.778746
537 5 6 -0.131756 34.467616 4.591373 8.012899
538 5 25 0.101496 34.253338 5.586339 7.643492
539 5 61 -0.691163 38.340144 1.492691 9.210916
540 5 61 -0.691163 38.475705 4.179460 10.049177
541 5 61 -0.691163 37.133625 2.287597 11.632704
542 5 5 -0.000586 31.001478 3.568736 8.174421
543 5 26 -0.010501 30.066073 3.729934 7.594091
544 5 26 -0.010501 30.996979 2.507806 8.503908
545 5 5 -0.032579 30.910632 4.511903 9.412082
546 5 26 0.137701 30.868347 5.554730 9.026603
547 5 6 -0.011695 32.126668 4.365732 10.338982
548 5 6 -0.095646 32.419147 3.147592 10.982661
549 5 25 0.111209 31.822145 2.267303 10.783848
550 5 6 -0.184492 33.429207 3.074534 11.954770
551 5 25 0.122822 33.578232 2.140096 12.480547
552 5 6 -0.022823 34.162578 4.220263 12.317140
553 5 5 0.164417 35.101665 4.188301 13.521341
554 5 6 -0.184492 33.952512 5.406877 11.593850
555 5 25 0.122822 34.514604 6.299505 11.836426
556 5 6 -0.095646 32.946277 5.478911 10.616553
557 5 25 0.111209 32.761837 6.427637 10.128787
558 5 26 -0.040461 36.120026 4.465167 13.174595
559 5 5 -0.072194 34.688871 5.144558 14.704478
560 5 26 0.004392 34.715446 6.192235 14.337637
561 5 26 0.004392 35.472062 5.059549 15.488143
562 5 5 0.060914 29.535655 4.260524 10.170921
563 5 26 -0.029666 28.712953 4.367543 9.430829
564 5 26 -0.029666 29.511405 3.208184 10.525644
565 5 5 -0.080441 29.185541 5.226196 11.365018
566 5 26 0.161633 29.143692 6.259136 10.952865
567 5 6 -0.033909 30.248097 5.127855 12.405652
568 5 6 -0.046469 30.480154 3.910148 13.070958
569 5 25 0.119472 29.900596 3.025598 12.842646
570 5 6 -0.154837 31.467937 3.824159 14.038009
571 5 25 0.088671 31.636174 2.878513 14.538290
572 5 6 -0.050237 32.232993 4.952883 14.350474
573 5 5 0.18978 33.302739 4.850985 15.384237
574 5 6 -0.154837 31.997830 6.171847 13.688360
575 5 25 0.088671 32.578017 7.056085 13.916067
576 5 6 -0.046469 31.010203 6.257736 12.721025
577 5 25 0.119472 30.842443 7.202993 12.219887
578 5 26 -0.043781 33.347086 3.816657 15.792921
579 5 5 -0.103886 32.955681 5.809326 16.579223
580 5 26 0.015134 32.973947 6.864354 16.231846
581 5 26 0.015134 33.774853 5.700995 17.323281
582 5 5 0.02372 27.796833 4.937165 12.045094
583 5 26 -0.032673 27.015237 5.024139 11.260045
584 5 26 -0.032673 27.766675 3.889221 12.410959
585 5 5 -0.070608 27.381382 5.892424 13.231239
586 5 26 0.047784 27.332455 6.925384 12.823949
587 5 6 -0.002343 28.311967 5.856255 14.444518
588 5 6 -0.14064 28.517752 4.667243 15.166035
589 5 25 0.145001 27.957748 3.775050 14.916405
590 5 6 -0.235918 29.522811 4.590050 16.145432
591 5 25 0.13736 29.709789 3.636458 16.622917
592 5 6 -0.03349 30.347518 5.699245 16.423855
593 5 5 0.334804 31.583808 5.537076 17.322990
594 5 6 -0.235918 30.049059 6.923854 15.794721
595 5 25 0.13736 30.648326 7.802559 15.994003
596 5 6 -0.14064 29.041428 7.001310 14.819085
597 5 25 0.145001 28.894683 7.938203 14.296751
598 5 26 -0.102684 31.624190 4.490397 17.698193
599 5 5 -0.093356 31.459996 6.447758 18.550071
600 5 26 -0.000797 30.525681 6.215716 19.104547
601 5 26 -0.000797 32.318602 6.284123 19.235818
602 5 26 -0.000556 32.824805 2.385750 0.000843
603 5 26 -0.040461 35.155186 3.156484 13.931059
604 5 26 0.047784 26.359955 5.617807 13.571086
605 5 26 -0.000797 31.446785 7.518040 18.254846
606 6 5 -0.051233 34.468278 15.412784 31.710763
607 6 26 -0.000556 34.106901 16.445591 31.901708
608 6 26 -0.000556 35.182718 15.445151 30.860761
609 6 5 0.030247 33.285429 14.477837 31.411398
610 6 26 0.028561 32.608415 14.531845 32.293167
611 6 6 0.077933 33.810804 13.059682 31.254862