LAMMPS Description

3885  atoms
3077  bonds
3876  angles
4131  dihedrals
0  impropers

90  atom types
840  bond types
4614  angle types
985  dihedral types
38  improper types

-0.5 40.5 xlo xhi
-0.5 40.5 ylo yhi
-0.5 40.5 zlo zhi

Masses

1 12.01
2 12.01
3 12.01
4 12.01
5 12.01
6 12.01
7 12.01
8 12.01
9 12.01
10 12.01
11 12.01
12 12.01
13 12.01
14 12.01
15 12.01
16 12.01
17 12.01
18 12.01
19 12.01
20 1.008
21 1.008
22 1.008
23 1.008
24 1.008
25 1.008
26 1.008
27 1.008
28 1.008
29 1.008
30 1.008
31 1.008
32 1.008
33 19.00
34 35.45
35 79.90
36 126.9
37 14.01
38 14.01
39 14.01
40 14.01
41 14.01
42 14.01
43 14.01
44 14.01
45 14.01
46 14.01
47 14.01
48 14.01
49 14.01
50 14.01
51 14.01
52 14.01
53 14.01
54 14.01
55 14.01
56 14.01
57 14.01
58 14.01
59 14.01
60 14.01
61 16.00
62 16.00
63 16.00
64 16.00
65 30.97
66 30.97
67 30.97
68 30.97
69 30.97
70 30.97
71 30.97
72 30.97
73 30.97
74 30.97
75 30.97
76 32.06
77 32.06
78 32.06
79 32.06
80 32.06
81 32.06
82 32.06
83 32.06
84 6.94
85 39.10
86 22.99
87 35.45
88 19.00
89 79.90
90 126.9

Atoms

1 1 5 0.23943 35.821421 33.702571 18.345311
2 1 63 -0.107446 35.671903 33.800328 16.928279
3 1 5 0.096748 35.437321 32.314218 18.903631
4 1 33 -0.083444 37.130395 33.983978 18.705853
5 1 33 -0.076564 34.143250 32.019189 18.506172
6 1 33 -0.076564 35.435127 32.469011 20.281562
7 1 5 0.239938 35.613909 35.172124 16.523680
8 1 5 0.031579 35.771971 35.317708 14.990032
9 1 33 -0.098346 36.627796 35.901959 17.134824
10 1 33 -0.098346 34.384027 35.709901 16.880102
11 1 5 0.417302 35.787310 36.820654 14.584968
12 1 63 -0.075238 34.658717 34.680860 14.370493
13 1 33 -0.094088 36.988623 34.736543 14.644054
14 1 33 -0.120596 34.607024 37.439063 14.959839
15 1 33 -0.120596 35.928923 36.969334 13.220149
16 1 33 -0.120596 36.843639 37.482735 15.185260
17 1 5 0.258717 34.960332 33.969436 13.179047
18 1 5 0.054096 33.665425 33.769285 12.380594
19 1 33 -0.09756 35.480801 32.728641 13.505970
20 1 33 -0.09756 35.864626 34.635887 12.365122
21 1 33 -0.120109 32.761999 33.045851 13.138255
22 1 33 -0.120109 33.942625 33.059727 11.225555
23 1 79 1.069374 32.890277 35.360501 11.914314
24 1 61 -0.610284 32.417590 36.187969 13.342591
25 1 61 -0.610284 31.520712 34.995377 10.945705
26 1 61 -0.610284 34.015305 36.295550 11.014075
27 1 5 0.244615 36.386650 31.124967 18.536336
28 1 33 -0.110109 36.313602 30.870420 17.177282
29 1 5 0.166751 36.012941 29.843739 19.350803
30 1 33 -0.110109 37.689172 31.474003 18.851872
31 1 33 -0.087619 34.709238 29.485562 19.046449
32 1 33 -0.087619 36.066792 30.178800 20.693345
33 1 5 0.133435 36.938252 28.599430 19.129099
34 1 33 -0.056543 36.801047 28.160191 17.825853
35 1 5 0.043406 36.592919 27.458360 20.149742
36 1 33 -0.056543 38.258765 28.967780 19.327154
37 1 33 -0.026439 35.246562 27.145711 20.040707
38 1 33 -0.026439 36.799471 28.000215 21.406386
39 1 5 -0.042189 37.406053 26.111739 20.000068
40 1 63 -0.05899 37.038118 25.621788 18.702126
41 1 5 0.198119 37.197809 25.246959 21.342788
42 1 33 -0.033517 38.756229 26.417412 19.952532
43 1 33 -0.070849 35.846000 25.055009 21.577529
44 1 33 -0.070849 37.660480 26.066768 22.357423
45 1 5 0.047327 36.667713 24.274100 18.519718
46 1 5 0.014492 36.086294 24.080223 17.100445
47 1 33 -0.023915 35.685865 23.885026 19.412716
48 1 33 -0.023915 37.794018 23.473942 18.602448
49 1 5 0.258874 34.851142 24.966527 16.830848
50 1 63 -0.046319 35.674816 22.719418 16.992728
51 1 33 -0.052305 37.077669 24.434273 16.186724
52 1 33 -0.07104 33.838531 24.685365 17.731001
53 1 33 -0.07104 34.377543 24.728799 15.553816
54 1 33 -0.07104 35.172591 26.305860 16.924055
55 1 5 0.242379 36.229180 22.011293 15.900631
56 1 5 0.030285 35.588908 20.619160 15.845637
57 1 33 -0.097617 37.595666 21.857043 16.078326
58 1 33 -0.097617 35.983269 22.660622 14.699389
59 1 33 -0.112266 35.844646 19.945333 17.027168
60 1 33 -0.112266 36.135958 19.899792 14.798373
61 1 79 1.088381 33.778525 20.711815 15.607236
62 1 61 -0.614813 33.070616 21.541772 16.934402
63 1 61 -0.614813 33.152237 19.114862 15.547017
64 1 61 -0.614813 33.435293 21.527549 14.134576
65 1 5 0.224162 37.955666 23.881900 21.589577
66 1 33 -0.097154 37.383504 22.856230 20.872323
67 1 5 0.152641 37.906442 23.463247 23.102693
68 1 33 -0.097154 39.280693 24.015440 21.210879
69 1 33 -0.114533 36.581298 23.445504 23.510116
70 1 33 -0.114533 38.577760 24.428784 23.836820
71 1 5 0.169008 38.537549 22.070331 23.443176
72 1 63 -0.058703 37.806701 21.084233 22.706934
73 1 5 0.283965 38.497626 21.861845 25.001490
74 1 33 -0.097241 39.860508 22.081245 23.027397
75 1 33 -0.09168 37.189977 21.798602 25.450407
76 1 33 -0.09168 39.135172 22.899591 25.657664
77 1 5 0.211916 38.086351 19.727554 23.025147
78 1 5 0.001658 37.636976 18.794922 21.878278
79 1 33 -0.094681 37.387903 19.365163 24.167087
80 1 33 -0.094681 39.445209 19.514680 23.214423
81 1 5 0.294487 36.156312 18.987685 21.496005
82 1 63 -0.046447 37.788721 17.452217 22.333598
83 1 33 -0.068202 38.398003 19.090115 20.748946
84 1 33 -0.089747 35.333723 18.744387 22.581806
85 1 33 -0.089747 35.824881 18.100954 20.486790
86 1 33 -0.089747 35.927875 20.272198 21.035627
87 1 5 0.23616 38.753642 16.685224 21.640121
88 1 5 0.049903 38.863204 15.310736 22.313611
89 1 33 -0.095009 40.000007 17.290888 21.704664
90 1 33 -0.095009 38.381791 16.513126 20.315609
91 1 33 -0.119297 39.240491 15.473748 23.635392
92 1 33 -0.119297 39.829641 14.558857 21.669791
93 1 79 1.089277 37.285721 14.385803 22.266448
94 1 61 -0.616384 35.979362 15.391330 22.749818
95 1 61 -0.616384 37.404413 13.069105 23.361509
96 1 61 -0.616384 37.030505 13.795090 20.674012
97 1 33 -0.083444 34.986074 34.606917 18.995646
98 1 33 -0.09168 39.155679 20.711716 25.393487
99 2 5 0.23943 8.503718 11.011495 14.307740
100 2 63 -0.107446 9.287415 10.360697 15.308826
101 2 5 0.096748 8.095382 12.450444 14.694348
102 2 33 -0.083444 9.200054 11.050057 13.109315
103 2 33 -0.076564 7.436252 12.412002 15.912423
104 2 33 -0.076564 7.180461 12.836683 13.726671
105 2 5 0.239938 9.269843 8.942469 15.115930
106 2 5 0.031579 10.349870 8.240304 15.975443
107 2 33 -0.098346 9.508039 8.630864 13.781656
108 2 33 -0.098346 8.030940 8.438205 15.489676
109 2 5 0.417302 10.364867 6.710659 15.687133
110 2 63 -0.075238 10.027038 8.451549 17.346536
111 2 33 -0.094088 11.579605 8.786704 15.619224
112 2 33 -0.120596 9.137294 6.145623 15.986852
113 2 33 -0.120596 11.323438 6.068396 16.444451
114 2 33 -0.120596 10.653301 6.462059 14.356894
115 2 5 0.258717 11.140548 8.682641 18.197025
116 2 5 0.054096 10.722632 8.403496 19.646783
117 2 33 -0.09756 11.530711 10.006967 18.090862
118 2 33 -0.09756 12.224967 7.869529 17.901620
119 2 33 -0.120109 9.684821 9.247320 19.999617
120 2 33 -0.120109 11.794178 8.643888 20.488465
121 2 79 1.069374 10.172208 6.674128 19.884607
122 2 61 -0.610284 8.758804 6.406917 18.947058
123 2 61 -0.610284 9.836329 6.471800 21.555977
124 2 61 -0.610284 11.430894 5.608626 19.404138
125 2 5 0.244615 9.243445 13.513210 14.748471
126 2 33 -0.110109 10.107151 13.216467 15.789197
127 2 5 0.166751 8.659683 14.953518 14.919627
128 2 33 -0.110109 9.952361 13.471813 13.559489
129 2 33 -0.087619 7.944252 15.007429 16.105299
130 2 33 -0.087619 7.778506 15.167889 13.873130
131 2 5 0.133435 9.705549 16.119614 14.913055
132 2 33 -0.056543 10.517075 16.005638 16.025998
133 2 5 0.043406 8.986287 17.514048 14.878073
134 2 33 -0.056543 10.500190 16.017666 13.783094
135 2 33 -0.026439 8.105544 17.595998 15.945730
136 2 33 -0.026439 8.238931 17.524568 13.713268
137 2 5 -0.042189 9.919615 18.787900 14.934457
138 2 63 -0.05899 10.564275 18.694539 16.213433
139 2 5 0.198119 9.048074 20.069363 14.495853
140 2 33 -0.033517 10.905166 18.652775 13.970558
141 2 33 -0.070849 7.921369 20.171924 15.295446
142 2 33 -0.070849 8.599982 19.763510 13.222548
143 2 5 0.047327 10.635912 19.813940 17.066982
144 2 5 0.014492 11.148741 19.377185 18.458465
145 2 33 -0.023915 9.395292 20.394014 17.259918
146 2 33 -0.023915 11.559809 20.714310 16.565575
147 2 5 0.258874 10.249167 18.313156 19.123616
148 2 63 -0.046319 11.143911 20.532272 19.294203
149 2 33 -0.052305 12.415797 18.822386 18.285756
150 2 33 -0.07104 8.962530 18.793447 19.292711
151 2 33 -0.07104 10.758392 17.984101 20.366208
152 2 33 -0.07104 10.199846 17.161299 18.364259
153 2 5 0.242379 12.381473 20.828942 19.912155
154 2 5 0.030285 12.177388 22.005306 20.874196
155 2 33 -0.097617 13.312925 21.203270 18.955637
156 2 33 -0.097617 12.860016 19.744172 20.632818
157 2 33 -0.112266 11.723053 23.106137 20.169066
158 2 33 -0.112266 13.382563 22.328574 21.471328
159 2 79 1.088381 10.964388 21.610518 22.184037
160 2 61 -0.614813 9.440151 21.273869 21.466608
161 2 61 -0.614813 10.809139 22.974116 23.214871
162 2 61 -0.614813 11.516535 20.257575 23.087717
163 2 5 0.224162 9.688165 21.505413 14.332504
164 2 33 -0.097154 9.898407 22.100554 15.555380
165 2 5 0.152641 8.749267 22.462890 13.514627
166 2 33 -0.097154 10.897531 21.397915 13.667057
167 2 33 -0.114533 7.501516 22.475352 14.119008
168 2 33 -0.114533 8.612425 21.941248 12.237507
169 2 5 0.169008 9.239267 23.945064 13.382350
170 2 63 -0.058703 9.336577 24.477534 14.707336
171 2 5 0.283965 8.242263 24.728545 12.452005
172 2 33 -0.097241 10.491935 23.935387 12.787419
173 2 33 -0.09168 6.988643 24.800690 13.033989
174 2 33 -0.09168 8.118041 24.106824 11.222381
175 2 5 0.211916 9.572518 25.875562 14.806799
176 2 5 0.001658 10.134932 26.235637 16.200027
177 2 33 -0.094681 8.378541 26.560851 14.639520
178 2 33 -0.094681 10.500855 26.307090 13.868925
179 2 5 0.294487 9.243374 25.733832 17.352837
180 2 63 -0.046447 10.184824 27.657989 16.287345
181 2 33 -0.068202 11.378977 25.624267 16.342410
182 2 33 -0.089747 7.972540 26.273562 17.260734
183 2 33 -0.089747 9.797334 26.118885 18.560941
184 2 33 -0.089747 9.149480 24.353566 17.340258
185 2 5 0.23616 11.482198 28.210941 16.393768
186 2 5 0.049903 11.365650 29.740941 16.375742
187 2 33 -0.095009 12.266848 27.831556 15.314503
188 2 33 -0.095009 12.086657 27.815871 17.577310
189 2 33 -0.119297 10.768558 30.143940 15.193753
190 2 33 -0.119297 12.629611 30.299273 16.442780
191 2 79 1.089277 10.377417 30.379363 17.776454
192 2 61 -0.616384 8.919734 29.486225 17.946071
193 2 61 -0.616384 9.986480 32.019162 17.452160
194 2 61 -0.616384 11.312936 30.278976 19.213346
195 2 33 -0.083444 7.307274 10.331876 14.095087
196 2 33 -0.09168 8.677674 26.011408 12.179657
197 3 5 0.23943 13.515004 16.445676 15.644872
198 3 63 -0.107446 14.614760 15.534460 15.655454
199 3 5 0.096748 13.870913 17.836032 16.216728
200 3 33 -0.083444 13.039032 16.601480 14.351903
201 3 33 -0.076564 14.384637 17.672095 17.492992
202 3 33 -0.076564 12.658769 18.500218 16.327278
203 3 5 0.239938 14.149687 14.185907 15.537127
204 3 5 0.031579 15.312213 13.210719 15.227615
205 3 33 -0.098346 13.213852 14.083007 14.513531
206 3 33 -0.098346 13.565455 13.789450 16.733097
207 3 5 0.417302 14.770397 11.765784 15.023269
208 3 63 -0.075238 16.202414 13.220232 16.339456
209 3 33 -0.094088 15.913292 13.646448 14.050100
210 3 33 -0.120596 14.123654 11.321416 16.163573
211 3 33 -0.120596 15.793845 10.882620 14.744945
212 3 33 -0.120596 13.882072 11.717162 13.963530
213 3 5 0.258717 17.581069 13.153266 16.005594
214 3 5 0.054096 18.366423 12.682739 17.236934
215 3 33 -0.09756 18.026699 14.413834 15.645425
216 3 33 -0.09756 17.844400 12.270189 14.968670
217 3 33 -0.120109 18.181955 13.579752 18.273718
218 3 33 -0.120109 19.714696 12.631832 16.930349
219 3 79 1.069374 17.834818 11.024681 17.801277
220 3 61 -0.610284 16.198452 11.110469 18.314169
221 3 61 -0.610284 18.855529 10.579925 19.108016
222 3 61 -0.610284 18.009478 9.904818 16.510604
223 3 5 0.244615 14.845880 18.715003 15.363910
224 3 33 -0.110109 16.101592 18.132112 15.339739
225 3 5 0.166751 14.930869 20.166950 15.937658
226 3 33 -0.110109 14.367446 18.789478 14.066410
227 3 33 -0.087619 15.405513 20.106111 17.238264
228 3 33 -0.087619 13.642198 20.672705 15.971184
229 3 5 0.133435 15.819521 21.170614 15.127342
230 3 33 -0.056543 17.137811 20.760338 15.190520
231 3 5 0.043406 15.654876 22.631243 15.677308
232 3 33 -0.056543 15.425320 21.164585 13.799475
233 3 33 -0.026439 15.944640 22.639771 17.033140
234 3 33 -0.026439 14.314029 22.941226 15.530805
235 3 5 -0.042189 16.545821 23.743746 14.995010
236 3 63 -0.05899 17.892565 23.346360 15.292411
237 3 5 0.198119 15.956606 25.184105 15.410099
238 3 33 -0.033517 16.387584 23.651651 13.622002
239 3 33 -0.070849 15.896430 25.291328 16.790032
240 3 33 -0.070849 14.647970 25.165295 14.959817
241 3 5 0.047327 18.828064 24.281227 15.779855
242 3 5 0.014492 20.105064 23.546173 16.247762
243 3 33 -0.023915 18.340608 24.974933 16.872562
244 3 33 -0.023915 19.208243 25.127449 14.752707
245 3 5 0.258874 19.828734 22.508543 17.357169
246 3 63 -0.046319 20.987929 24.528899 16.783959
247 3 33 -0.052305 20.629572 22.870187 15.147309
248 3 33 -0.07104 19.273320 23.114968 18.470036
249 3 33 -0.07104 21.013726 21.904997 17.735519
250 3 33 -0.07104 18.971454 21.522706 16.911043
251 3 5 0.242379 22.280056 24.550311 16.208300
252 3 5 0.030285 23.141480 25.557693 16.979103
253 3 33 -0.097617 22.204820 24.961255 14.886137
254 3 33 -0.097617 22.885595 23.303884 16.277789
255 3 33 -0.112266 22.566061 26.813953 16.900591
256 3 33 -0.112266 24.403715 25.612896 16.415870
257 3 79 1.088381 23.308361 25.101838 18.741843
258 3 61 -0.614813 21.756346 25.095925 19.478421
259 3 61 -0.614813 24.292609 26.273677 19.519127
260 3 61 -0.614813 24.039910 23.552231 18.866405
261 3 5 0.224162 16.536106 26.531241 14.820146
262 3 33 -0.097154 17.723479 26.872089 15.426599
263 3 5 0.152641 15.547066 27.730085 15.047716
264 3 33 -0.097154 16.747805 26.385123 13.459714
265 3 33 -0.114533 15.244821 27.799042 16.399087
266 3 33 -0.114533 14.379372 27.460895 14.350652
267 3 5 0.169008 16.068250 29.136321 14.594607
268 3 63 -0.058703 17.250460 29.412883 15.352548
269 3 5 0.283965 14.920385 30.192434 14.795684
270 3 33 -0.097241 16.381294 29.067798 13.245340
271 3 33 -0.09168 14.610469 30.324310 16.138082
272 3 33 -0.09168 13.774807 29.815648 14.117725
273 3 5 0.211916 17.773899 30.729630 15.241955
274 3 5 0.001658 19.255478 30.765659 15.678616
275 3 33 -0.094681 17.064055 31.582672 16.073595
276 3 33 -0.094681 17.723335 31.193571 13.934348
277 3 5 0.294487 19.476690 30.190940 17.091563
278 3 63 -0.046447 19.660998 32.132414 15.705674
279 3 33 -0.068202 19.993107 29.982606 14.792938
280 3 33 -0.089747 18.745324 30.898789 18.029041
281 3 33 -0.089747 20.817803 30.284665 17.419107
282 3 33 -0.089747 19.110154 28.857973 17.145943
283 3 5 0.23616 20.656570 32.485248 14.765139
284 3 5 0.049903 20.903422 33.997022 14.856866
285 3 33 -0.095009 20.234590 32.200874 13.474602
286 3 33 -0.095009 21.840694 31.815176 15.031739
287 3 33 -0.119297 19.726712 34.673608 14.585557
288 3 33 -0.119297 21.849760 34.366299 13.917768
289 3 79 1.089277 21.501218 34.504743 16.509452
290 3 61 -0.616384 20.543450 33.792609 17.745111
291 3 61 -0.616384 21.371028 36.212612 16.624232
292 3 61 -0.616384 23.144632 34.035263 16.678890
293 3 33 -0.083444 12.473033 15.974581 16.439195
294 3 33 -0.09168 15.258424 31.435573 14.295856
295 4 5 0.23943 29.948063 35.002992 25.272683
296 4 63 -0.107446 28.638924 35.440026 25.640171
297 4 5 0.096748 30.582699 34.045748 26.305978
298 4 33 -0.083444 29.909284 34.369587 24.039846
299 4 33 -0.076564 30.581692 34.666712 27.544541
300 4 33 -0.076564 31.901376 33.903464 25.901622
301 4 5 0.239938 28.281314 36.619471 24.912221
302 4 5 0.031579 26.770516 36.932009 25.046627
303 4 33 -0.098346 28.572852 36.463483 23.561370
304 4 33 -0.098346 28.988999 37.705477 25.410842
305 4 5 0.417302 26.391990 38.169694 24.181750
306 4 63 -0.075238 26.501047 37.221405 26.414975
307 4 33 -0.094088 26.076333 35.818163 24.582781
308 4 33 -0.120596 27.103389 39.285218 24.588629
309 4 33 -0.120596 25.047392 38.462135 24.288639
310 4 33 -0.120596 26.660063 37.937679 22.844275
311 4 5 0.258717 25.267494 36.715749 26.904157
312 4 5 0.054096 24.884386 37.487859 28.173585
313 4 33 -0.09756 25.415732 35.376371 27.222641
314 4 33 -0.09756 24.229047 36.849081 25.994085
315 4 33 -0.120109 25.868317 37.320456 29.131416
316 4 33 -0.120109 23.692833 36.991288 28.671627
317 4 79 1.069374 24.681080 39.278948 27.855928
318 4 61 -0.610284 26.192359 39.931868 27.368236
319 4 61 -0.610284 24.155948 39.999990 29.322748
320 4 61 -0.610284 23.497441 39.505700 26.631992
321 4 5 0.244615 29.941641 32.622871 26.428103
322 4 33 -0.110109 28.662308 32.728954 26.946957
323 4 5 0.166751 30.818907 31.693669 27.328962
324 4 33 -0.110109 29.862345 32.054563 25.167669
325 4 33 -0.087619 30.909157 32.253430 28.593513
326 4 33 -0.087619 32.088819 31.664874 26.777529
327 4 5 0.133435 30.323569 30.214434 27.470951
328 4 33 -0.056543 29.114865 30.204528 28.141132
329 4 5 0.043406 31.390703 29.337787 28.216420
330 4 33 -0.056543 30.126880 29.672896 26.211303
331 4 33 -0.026439 31.680556 29.921066 29.440383
332 4 33 -0.026439 32.535331 29.394959 27.440546
333 4 5 -0.042189 30.996362 27.832277 28.490123
334 4 63 -0.05899 29.860280 27.919965 29.362883
335 4 5 0.198119 32.333259 27.026835 28.887712
336 4 33 -0.033517 30.555711 27.271287 27.302778
337 4 33 -0.070849 32.954262 27.641406 29.962882
338 4 33 -0.070849 33.173573 27.193364 27.800618
339 4 5 0.047327 29.783427 27.128090 30.526397
340 4 5 0.014492 28.596890 27.597106 31.399395
341 4 33 -0.023915 30.922695 27.241805 31.302275
342 4 33 -0.023915 29.523619 25.815792 30.171387
343 4 5 0.258874 28.710961 29.077360 31.823252
344 4 63 -0.046319 28.603399 26.805293 32.585016
345 4 33 -0.052305 27.434708 27.454414 30.643065
346 4 33 -0.07104 29.867069 29.292063 32.552652
347 4 33 -0.07104 27.628188 29.420489 32.611596
348 4 33 -0.07104 28.716931 29.909119 30.721449
349 4 5 0.242379 27.390326 26.131930 32.861552
350 4 5 0.030285 27.514365 25.442546 34.225506
351 4 33 -0.097617 27.156093 25.160217 31.900531
352 4 33 -0.097617 26.320581 27.014402 32.905990
353 4 33 -0.112266 28.562165 24.538912 34.193553
354 4 33 -0.112266 26.346189 24.756223 34.504509
355 4 79 1.088381 27.820866 26.643586 35.569555
356 4 61 -0.614813 29.304866 27.458566 35.278208
357 4 61 -0.614813 27.934013 25.787491 37.052936
358 4 61 -0.614813 26.521893 27.765757 35.642775
359 4 5 0.224162 32.333889 25.464091 29.125351
360 4 33 -0.097154 31.808216 25.145944 30.356720
361 4 5 0.152641 33.790622 24.877921 29.086006
362 4 33 -0.097154 31.582711 24.847688 28.139085
363 4 33 -0.114533 34.570287 25.578978 29.993174
364 4 33 -0.114533 34.302675 25.086723 27.814757
365 4 5 0.169008 33.917892 23.351397 29.414589
366 4 63 -0.058703 33.421180 23.162627 30.743583
367 4 5 0.283965 35.416897 22.914506 29.226152
368 4 33 -0.097241 33.130825 22.647937 28.515210
369 4 33 -0.09168 36.230663 23.561746 30.139573
370 4 33 -0.09168 35.865043 23.214628 27.952167
371 4 5 0.211916 33.631055 21.878862 31.316245
372 4 5 0.001658 32.659486 21.641941 32.493942
373 4 33 -0.094681 34.924918 21.796058 31.808432
374 4 33 -0.094681 33.409629 20.863887 30.395143
375 4 5 0.294487 32.732214 22.751135 33.561675
376 4 63 -0.046447 33.038188 20.419312 33.122402
377 4 33 -0.068202 31.358646 21.632606 31.994522
378 4 33 -0.089747 34.010051 22.846021 34.084114
379 4 33 -0.089747 31.857822 22.452975 34.591817
380 4 33 -0.089747 32.370774 23.975353 33.028047
381 4 5 0.23616 32.084519 19.378109 33.040716
382 4 5 0.049903 32.683849 18.114191 33.671688
383 4 33 -0.095009 31.784164 19.091145 31.717138
384 4 33 -0.095009 30.926963 19.720511 33.722659
385 4 33 -0.119297 33.837116 17.761990 32.992015
386 4 33 -0.119297 31.777314 17.074325 33.568252
387 4 79 1.089277 33.095616 18.347573 35.438652
388 4 61 -0.616384 33.951207 19.818914 35.671949
389 4 61 -0.616384 34.095592 17.042376 35.932058
390 4 61 -0.616384 31.644036 18.345851 36.356717
391 4 33 -0.083444 30.823517 36.081786 25.181204
392 4 33 -0.09168 35.587560 21.550869 29.370588
393 5 5 0.23943 28.429647 13.433186 4.922555
394 5 63 -0.107446 28.042935 12.235948 5.598547
395 5 5 0.096748 27.936021 14.716539 5.626910
396 5 33 -0.083444 29.810209 13.488752 4.806133
397 5 33 -0.076564 26.561034 14.638168 5.778249
398 5 33 -0.076564 28.208878 15.743238 4.735787
399 5 5 0.239938 28.132879 11.111354 4.717590
400 5 5 0.031579 28.031082 9.774656 5.492918
401 5 33 -0.098346 29.344447 11.124925 4.034916
402 5 33 -0.098346 27.090421 11.154858 3.800945
403 5 5 0.417302 28.213095 8.569146 4.525045
404 5 63 -0.075238 26.736470 9.705570 6.082787
405 5 33 -0.094088 29.055652 9.765649 6.435186
406 5 33 -0.120596 27.235020 8.577839 3.545593
407 5 33 -0.120596 28.126489 7.368395 5.200015
408 5 33 -0.120596 29.453021 8.611076 3.912380
409 5 5 0.258717 26.698850 9.137984 7.383967
410 5 5 0.054096 25.265435 8.679324 7.682841
411 5 33 -0.09756 27.064498 10.097594 8.312831
412 5 33 -0.09756 27.535179 8.039548 7.519515
413 5 33 -0.120109 24.410608 9.765334 7.624215
414 5 33 -0.120109 25.211037 8.141512 8.956507
415 5 79 1.069374 24.683498 7.416557 6.492460
416 5 61 -0.610284 24.616721 8.117920 4.926656
417 5 61 -0.610284 23.120332 6.920317 6.999889
418 5 61 -0.610284 25.761335 6.079309 6.514163
419 5 5 0.244615 28.599972 15.059643 7.002372
420 5 33 -0.110109 28.241566 14.110581 7.944701
421 5 5 0.166751 28.180094 16.487568 7.481215
422 5 33 -0.110109 29.976933 15.039655 6.855628
423 5 33 -0.087619 26.802554 16.522014 7.628735
424 5 33 -0.087619 28.529769 17.377364 6.479430
425 5 5 0.133435 28.838360 16.982111 8.813796
426 5 33 -0.056543 28.398262 16.189531 9.857030
427 5 5 0.043406 28.505894 18.493848 9.072884
428 5 33 -0.056543 30.214537 16.854645 8.721330
429 5 33 -0.026439 27.129724 18.662421 9.065323
430 5 33 -0.026439 29.021246 19.184977 7.990214
431 5 5 -0.042189 29.052015 19.112649 10.420405
432 5 63 -0.05899 28.380893 18.366729 11.446701
433 5 5 0.198119 28.955284 20.716732 10.312392
434 5 33 -0.033517 30.402343 18.821027 10.521611
435 5 33 -0.070849 27.655575 21.093865 10.015978
436 5 33 -0.070849 29.719705 21.035438 9.203463
437 5 5 0.047327 27.772570 19.025241 12.534379
438 5 5 0.014492 26.919698 18.020181 13.342113
439 5 33 -0.023915 26.919771 20.030330 12.115598
440 5 33 -0.023915 28.752254 19.496410 13.391046
441 5 5 0.258874 25.814270 17.353357 12.495240
442 5 63 -0.046319 26.282985 18.749155 14.388965
443 5 33 -0.052305 27.772369 17.018188 13.802573
444 5 33 -0.07104 24.950203 18.303029 11.979276
445 5 33 -0.07104 25.084815 16.483176 13.284102
446 5 33 -0.07104 26.357559 16.630132 11.452352
447 5 5 0.242379 26.509163 18.246156 15.691759
448 5 5 0.030285 25.655019 19.048815 16.680284
449 5 33 -0.097617 27.842560 18.404358 16.037700
450 5 33 -0.097617 26.156435 16.907549 15.785560
451 5 33 -0.112266 26.009778 20.385185 16.619287
452 5 33 -0.112266 25.880440 18.589114 17.965343
453 5 79 1.088381 23.870043 18.901935 16.312594
454 5 61 -0.614813 23.557081 19.532936 14.745678
455 5 61 -0.614813 22.995719 19.819013 17.470457
456 5 61 -0.614813 23.400255 17.251707 16.402065
457 5 5 0.224162 29.516808 21.670688 11.440797
458 5 33 -0.097154 28.667183 21.719119 12.522283
459 5 5 0.152641 29.676748 23.143933 10.920045
460 5 33 -0.097154 30.755040 21.212417 11.857585
461 5 33 -0.114533 28.462163 23.557971 10.395004
462 5 33 -0.114533 30.616013 23.138742 9.900424
463 5 5 0.169008 30.127843 24.197100 11.988591
464 5 63 -0.058703 29.127143 24.215865 13.011737
465 5 5 0.283965 30.338672 25.583916 11.277470
466 5 33 -0.097241 31.337699 23.780390 12.523209
467 5 33 -0.09168 29.141308 26.057147 10.769686
468 5 33 -0.09168 31.242578 25.475312 10.235787
469 5 5 0.211916 29.238997 25.249338 13.980996
470 5 5 0.001658 28.445399 24.888503 15.256554
471 5 33 -0.094681 28.710641 26.424928 13.469126
472 5 33 -0.094681 30.557708 25.451534 14.365383
473 5 5 0.294487 26.970242 24.548360 14.966952
474 5 63 -0.046447 28.460285 26.032047 16.108190
475 5 33 -0.068202 29.026000 23.758844 15.829673
476 5 33 -0.089747 26.330316 25.615891 14.362232
477 5 33 -0.089747 26.323423 24.265792 16.157093
478 5 33 -0.089747 26.870707 23.438899 14.146406
479 5 5 0.23616 29.147758 25.863698 17.332650
480 5 5 0.049903 29.156241 27.204943 18.078169
481 5 33 -0.095009 30.465754 25.493754 17.108043
482 5 33 -0.095009 28.518913 24.911125 18.119658
483 5 33 -0.119297 29.788409 28.160300 17.301199
484 5 33 -0.119297 29.856621 27.067945 19.263295
485 5 79 1.089277 27.469006 27.793495 18.469351
486 5 61 -0.616384 26.450301 27.671393 17.091441
487 5 61 -0.616384 27.572147 29.442228 18.936237
488 5 61 -0.616384 26.837641 26.861386 19.766457
489 5 33 -0.083444 27.882055 13.479295 3.643258
490 5 33 -0.09168 30.864145 26.535777 12.130308
491 6 5 0.23943 25.484571 12.575647 31.522873
492 6 63 -0.107446 25.261320 13.294502 32.736667
493 6 5 0.096748 24.178100 12.113691 30.839857
494 6 33 -0.083444 26.203344 13.358254 30.632096
495 6 33 -0.076564 23.443925 11.366719 31.746861
496 6 33 -0.076564 24.585512 11.266313 29.820727
497 6 5 0.239938 26.451117 13.317033 33.532132
498 6 5 0.031579 26.341182 14.342798 34.687111
499 6 33 -0.098346 27.550413 13.659283 32.752043
500 6 33 -0.098346 26.659487 12.063144 34.091769
501 6 5 0.417302 27.675316 14.406910 35.486570
502 6 63 -0.075238 25.297993 13.915246 35.557568
503 6 33 -0.094088 26.090283 15.585480 34.112232
504 6 33 -0.120596 27.977336 13.170919 36.031678
505 6 33 -0.120596 27.595665 15.318078 36.520165
506 6 33 -0.120596 28.721643 14.797808 34.669912
507 6 5 0.258717 24.493519 14.958137 36.088453
508 6 5 0.054096 23.771335 14.438833 37.338712
509 6 33 -0.09756 23.548072 15.331022 35.148014
510 6 33 -0.09756 25.228966 16.076071 36.454131
511 6 33 -0.120109 22.972054 13.362547 36.997618
512 6 33 -0.120109 22.968353 15.440369 37.855017
513 6 79 1.069374 24.943015 13.903724 38.639121
514 6 61 -0.610284 25.850841 12.568937 38.054050
515 6 61 -0.610284 24.011855 13.448363 40.007629
516 6 61 -0.610284 25.978597 15.213738 39.041452
517 6 5 0.244615 23.274950 13.235097 30.225677
518 6 33 -0.110109 22.755545 14.024361 31.237821
519 6 5 0.166751 22.120749 12.614206 29.373106
520 6 33 -0.110109 24.046533 14.030997 29.395523
521 6 33 -0.087619 21.342396 11.811830 30.192205
522 6 33 -0.087619 22.706705 11.809445 28.410506
523 6 5 0.133435 21.186770 13.636347 28.640599
524 6 33 -0.056543 20.486183 14.364906 29.583248
525 6 5 0.043406 20.211529 12.896496 27.658493
526 6 33 -0.056543 21.959309 14.514436 27.898438
527 6 33 -0.026439 19.500503 11.937547 28.363600
528 6 33 -0.026439 21.019753 12.237648 26.748484
529 6 5 -0.042189 19.162407 13.799798 26.896676
530 6 63 -0.05899 18.347234 14.349273 27.942454
531 6 5 0.198119 18.547796 12.940140 25.681214
532 6 33 -0.033517 19.838128 14.856506 26.308934
533 6 33 -0.070849 18.013805 11.755485 26.161610
534 6 33 -0.070849 19.645626 12.593478 24.912950
535 6 5 0.047327 16.941414 14.337002 27.841189
536 6 5 0.014492 16.317204 14.752904 29.192987
537 6 33 -0.023915 16.457832 13.075161 27.546645
538 6 33 -0.023915 16.540705 15.279103 26.909772
539 6 5 0.258874 16.730733 13.825861 30.356346
540 6 63 -0.046319 14.901241 14.665065 29.051416
541 6 33 -0.052305 16.766855 16.039142 29.487040
542 6 33 -0.07104 16.340455 12.521719 30.108143
543 6 33 -0.07104 16.124471 14.247275 31.525312
544 6 33 -0.07104 18.097242 13.853976 30.550493
545 6 5 0.242379 14.193455 15.847727 29.370454
546 6 5 0.030285 12.690681 15.551449 29.300471
547 6 33 -0.097617 14.486455 16.840705 28.448068
548 6 33 -0.097617 14.499300 16.291021 30.649139
549 6 33 -0.112266 12.361040 15.130847 28.023800
550 6 33 -0.112266 11.978773 16.702884 29.584902
551 6 79 1.088381 12.197363 14.251876 30.488182
552 6 61 -0.614813 13.018759 12.791492 30.108815
553 6 61 -0.614813 10.505981 13.995786 30.347588
554 6 61 -0.614813 12.578418 14.759831 32.084659
555 6 5 0.224162 17.540807 13.564441 24.634858
556 6 33 -0.097154 16.274727 13.672448 25.163250
557 6 5 0.152641 17.423325 12.671669 23.347858
558 6 33 -0.097154 17.984719 14.821642 24.261587
559 6 33 -0.114533 17.093267 11.382456 23.736837
560 6 33 -0.114533 18.665612 12.639544 22.733396
561 6 5 0.169008 16.370728 13.143175 22.287594
562 6 63 -0.058703 15.091213 13.132133 22.928922
563 6 5 0.283965 16.461370 12.203976 21.029385
564 6 33 -0.097241 16.692154 14.436538 21.904045
565 6 33 -0.09168 16.101807 10.909491 21.361797
566 6 33 -0.09168 17.746395 12.182720 20.517325
567 6 5 0.211916 13.964516 13.334637 22.086552
568 6 5 0.001658 12.739740 13.785397 22.913466
569 6 33 -0.094681 13.637130 12.144149 21.455094
570 6 33 -0.094681 14.202595 14.322087 21.140035
571 6 5 0.294487 12.410012 12.819930 24.068805
572 6 63 -0.046447 11.614543 13.802858 22.037780
573 6 33 -0.068202 13.025104 15.026315 23.479490
574 6 33 -0.089747 12.146739 11.549865 23.586688
575 6 33 -0.089747 11.289317 13.275555 24.740446
576 6 33 -0.089747 13.457124 12.752281 24.970518
577 6 5 0.23616 11.048995 15.078501 21.807234
578 6 5 0.049903 9.923255 14.935880 20.774189
579 6 33 -0.095009 11.996302 15.947895 21.286480
580 6 33 -0.095009 10.525146 15.600453 22.979996
581 6 33 -0.119297 10.439682 14.421015 19.597651
582 6 33 -0.119297 9.381786 16.181035 20.509187
583 6 79 1.089277 8.582623 13.834927 21.354521
584 6 61 -0.616384 9.230535 12.385112 22.009925
585 6 61 -0.616384 7.594188 13.439476 20.007837
586 6 61 -0.616384 7.650164 14.662808 22.535649
587 6 33 -0.083444 26.208719 11.410826 31.762424
588 6 33 -0.09168 15.653848 12.635071 19.994224
589 7 5 0.23943 19.496066 17.650999 14.677785
590 7 63 -0.107446 18.902701 18.712654 13.928986
591 7 5 0.096748 20.022622 18.100461 16.058908
592 7 33 -0.083444 18.579047 16.626962 14.859488
593 7 33 -0.076564 20.907063 19.151079 15.875599
594 7 33 -0.076564 20.741890 17.016744 16.539398
595 7 5 0.239938 18.832330 18.369039 12.541231
596 7 5 0.031579 17.918940 19.346465 11.761095
597 7 33 -0.098346 18.325178 17.083620 12.384331
598 7 33 -0.098346 20.102184 18.431539 11.982290
599 7 5 0.417302 17.793964 18.904464 10.273756
600 7 63 -0.075238 18.512761 20.640070 11.813055
601 7 33 -0.094088 16.662995 19.303727 12.359820
602 7 33 -0.120596 19.036007 18.890603 9.662879
603 7 33 -0.120596 16.981533 19.764532 9.563033
604 7 33 -0.120596 17.240588 17.639770 10.179653