LAMMPS Description

8642  atoms
6868  bonds
8211  angles
9129  dihedrals
408  impropers

90  atom types
840  bond types
4614  angle types
985  dihedral types
38  improper types

-0.5 45.5 xlo xhi
-0.5 45.5 ylo yhi
-0.5 45.5 zlo zhi

Masses

1 12.01
2 12.01
3 12.01
4 12.01
5 12.01
6 12.01
7 12.01
8 12.01
9 12.01
10 12.01
11 12.01
12 12.01
13 12.01
14 12.01
15 12.01
16 12.01
17 12.01
18 12.01
19 12.01
20 1.008
21 1.008
22 1.008
23 1.008
24 1.008
25 1.008
26 1.008
27 1.008
28 1.008
29 1.008
30 1.008
31 1.008
32 1.008
33 19.00
34 35.45
35 79.90
36 126.9
37 14.01
38 14.01
39 14.01
40 14.01
41 14.01
42 14.01
43 14.01
44 14.01
45 14.01
46 14.01
47 14.01
48 14.01
49 14.01
50 14.01
51 14.01
52 14.01
53 14.01
54 14.01
55 14.01
56 14.01
57 14.01
58 14.01
59 14.01
60 14.01
61 16.00
62 16.00
63 16.00
64 16.00
65 30.97
66 30.97
67 30.97
68 30.97
69 30.97
70 30.97
71 30.97
72 30.97
73 30.97
74 30.97
75 30.97
76 32.06
77 32.06
78 32.06
79 32.06
80 32.06
81 32.06
82 32.06
83 32.06
84 6.94
85 39.10
86 22.99
87 35.45
88 19.00
89 79.90
90 126.9

Atoms

1 1 5 -0.17012 35.110038 16.309940 26.120605
2 1 5 -0.080377 36.310619 15.869098 25.294375
3 1 1 0.457661 36.869947 14.568320 25.841117
4 1 61 -0.517308 37.363837 14.549564 26.956296
5 1 37 -0.494922 36.772063 13.424175 25.090031
6 1 5 0.377671 37.232580 12.083076 25.481404
7 1 5 -0.087202 38.759092 12.103399 25.678751
8 1 5 -0.087202 36.529228 11.644019 26.784647
9 1 5 -0.202714 36.861342 11.099162 24.324194
10 1 79 1.146806 37.254315 9.315460 24.532944
11 1 61 -0.692005 36.241960 8.671331 25.762409
12 1 61 -0.692005 36.849450 8.546849 23.049838
13 1 61 -0.692005 38.903634 9.015361 24.904181
14 1 5 0.033234 37.377204 16.977656 25.050515
15 1 5 -0.040801 38.041467 17.823812 26.190753
16 1 1 0.149139 38.825571 17.030997 27.228042
17 1 61 -0.406453 38.596910 17.215671 28.413803
18 1 37 -0.133397 39.837685 16.195133 26.836994
19 1 5 0.36877 40.799995 15.533876 27.736723
20 1 5 -0.082028 41.648867 16.619948 28.430392
21 1 5 -0.082028 40.078603 14.676987 28.805104
22 1 5 0.146913 41.723375 14.630724 26.856440
23 1 79 1.035104 43.012944 13.619964 27.687673
24 1 61 -0.654391 44.085949 14.616070 28.584126
25 1 61 -0.654391 42.314179 12.442855 28.725708
26 1 61 -0.654391 43.922932 12.810550 26.475742
27 1 5 -0.191501 37.119589 18.911370 26.858663
28 1 5 -0.030882 36.567839 19.987886 25.882275
29 1 1 0.063201 37.722689 20.601295 25.099723
30 1 61 -0.428116 38.604117 21.185429 25.714833
31 1 37 -0.148761 37.770717 20.491894 23.737274
32 1 5 0.235116 38.837843 21.024772 22.876846
33 1 5 -0.126052 38.915653 22.559957 23.036179
34 1 5 -0.126052 40.188025 20.379605 23.261164
35 1 5 -0.155508 38.478841 20.657692 21.400863
36 1 79 1.168132 39.660228 21.125299 20.072172
37 1 61 -0.694017 41.082653 20.177738 20.245920
38 1 61 -0.694017 38.915233 20.703141 18.581980
39 1 61 -0.694017 40.057642 22.795647 20.063719
40 1 5 0.009267 35.824364 21.169534 26.580979
41 1 5 0.030543 34.466210 20.949824 27.336411
42 1 5 -0.07009 33.513360 20.165436 26.395700
43 1 1 0.588752 34.651478 20.171309 28.632968
44 1 61 -0.525073 35.342429 20.638103 29.522690
45 1 63 -0.308902 34.005510 18.984936 28.810278
46 1 5 0.066477 33.876375 18.258838 29.982853
47 1 5 -0.00172 35.081475 17.363065 30.325498
48 1 5 0.170208 36.321413 18.129841 30.770383
49 1 63 -0.461077 37.315018 17.214432 31.189160
50 1 5 0.033257 38.175028 17.822945 32.134274
51 1 5 0.017087 39.604617 17.358489 31.907561
52 1 63 -0.203728 40.418704 17.978878 32.835259
53 1 1 0.093716 41.419278 18.857875 32.557557
54 1 61 -0.215755 41.799842 19.028659 31.407903
55 1 5 0.099241 42.095783 19.571984 33.707962
56 1 5 -0.098746 41.056357 20.128842 34.710790
57 1 5 -0.098746 42.888942 18.476288 34.465058
58 1 5 -0.021285 33.724881 22.328020 27.603802
59 1 5 0.071716 34.206496 23.515086 28.540921
60 1 5 -0.106297 33.181729 24.653209 28.326513
61 1 1 0.537843 34.097062 23.110433 30.013751
62 1 61 -0.543701 33.007549 22.756125 30.447481
63 1 63 -0.193282 35.173284 23.153279 30.846482
64 1 5 -0.093861 35.108837 23.093398 32.231343
65 1 5 0.020792 35.856128 21.880474 32.796110
66 1 5 -0.034582 37.357221 21.893262 32.496857
67 1 63 -0.280932 37.570742 21.707560 31.112015
68 1 5 -0.050274 38.847101 22.173577 30.721462
69 1 5 -0.063808 39.969444 21.213237 31.118415
70 1 63 -0.129316 41.166149 21.638404 30.572633
71 1 1 0.241915 42.392032 22.006156 31.063104
72 1 61 -0.431956 43.189620 22.352037 30.202755
73 1 5 0.076778 42.865666 22.085443 32.555063
74 1 5 0.007712 43.125998 20.670620 33.250242
75 1 5 -0.061894 44.294370 22.715318 32.549030
76 1 5 0.056116 35.654146 23.980422 28.129544
77 1 5 0.05545 36.329700 25.369146 28.458908
78 1 5 -0.05119 35.678878 26.544678 27.685093
79 1 1 0.569341 37.784700 25.247464 28.000381
80 1 61 -0.460243 38.494415 24.396445 28.517017
81 1 63 -0.319007 38.284750 26.021560 26.994314
82 1 5 -0.108445 39.567677 25.894942 26.486011
83 1 5 0.012954 40.624600 26.346754 27.503794
84 1 5 0.08119 42.046619 26.058067 26.990492
85 1 63 -0.429479 43.044092 26.515177 27.886550
86 1 5 0.037426 43.095390 25.741783 29.075868
87 1 5 -0.124873 42.754633 26.652446 30.256876
88 1 63 -0.339884 42.778682 25.984455 31.466505
89 1 1 0.702982 41.854976 25.073868 31.882325
90 1 61 -0.572459 40.952816 24.726940 31.134879
91 1 5 0.076161 41.883585 24.572618 33.317910
92 1 5 -0.064226 41.921395 22.999480 33.426804
93 1 5 -0.072611 43.052162 25.234881 34.101536
94 1 5 -0.072611 40.584755 25.054915 34.011015
95 1 5 -0.05119 36.330467 25.697735 29.962173
96 1 26 0.044876 34.341978 15.506785 26.128356
97 1 26 0.044876 34.658146 17.204507 25.659660
98 1 26 0.044876 35.397210 16.502117 27.168943
99 1 26 0.064026 35.909613 15.648120 24.280097
100 1 27 0.2808 36.321486 13.512739 24.165801
101 1 26 0.020319 39.270079 12.397818 24.737188
102 1 26 0.020319 39.143682 11.122140 26.009840
103 1 26 0.020319 39.044447 12.821903 26.460517
104 1 26 0.020319 36.873797 10.641116 27.104351
105 1 26 0.020319 35.427906 11.620065 26.640270
106 1 26 0.020319 36.752860 12.324063 27.629407
107 1 20 0.04237 35.764831 11.152715 24.149137
108 1 20 0.04237 37.353169 11.435226 23.385669
109 1 26 -0.000613 38.185312 16.495588 24.459226
110 1 26 -0.000613 36.921756 17.707009 24.351389
111 1 26 0.111889 38.837748 18.401929 25.675831
112 1 27 0.166048 39.967494 16.065731 25.822156
113 1 26 0.004168 42.214933 17.207626 27.676276
114 1 26 0.004168 42.359397 16.184148 29.156958
115 1 26 0.004168 41.018655 17.330896 28.991514
116 1 26 0.004168 40.809239 14.211616 29.494135
117 1 26 0.004168 39.476640 13.875347 28.343549
118 1 26 0.004168 39.411457 15.274365 29.453667
119 1 20 -0.076599 41.092896 13.915312 26.291008
120 1 20 -0.076599 42.240380 15.259849 26.099866
121 1 26 0.093897 36.293566 18.442504 27.414132
122 1 26 0.093897 37.738812 19.457095 27.606004
123 1 26 0.093901 35.871860 19.507019 25.168059
124 1 27 0.17792 36.992569 19.988826 23.282920
125 1 26 0.041813 37.951297 23.027754 22.743979
126 1 26 0.041813 39.725948 22.990328 22.421225
127 1 26 0.041813 39.140875 22.861101 24.077772
128 1 26 0.041813 41.011676 20.776791 22.636229
129 1 26 0.041813 40.137746 19.276387 23.138038
130 1 26 0.041813 40.470773 20.595361 24.309882
131 1 20 0.02694 38.357448 19.554992 21.327703
132 1 20 0.02694 37.496110 21.107196 21.140806
133 1 26 0.061117 36.558414 21.636183 27.252697
134 1 26 0.061117 35.598916 21.886338 25.758643
135 1 26 0.003416 33.903165 19.160544 26.176416
136 1 26 0.003416 33.369175 20.700187 25.431754
137 1 26 0.003416 32.514504 20.022751 26.862964
138 1 20 0.042187 33.018822 17.570193 29.828406
139 1 20 0.042187 33.602610 18.925389 30.830121
140 1 26 0.040297 35.324581 16.695559 29.473919
141 1 26 0.040297 34.773100 16.723626 31.181982
142 1 20 0.060931 35.991366 18.791984 31.605353
143 1 20 0.060931 36.728258 18.728349 29.932285
144 1 20 0.02895 38.199265 18.934251 32.048482
145 1 20 0.02895 37.845651 17.550847 33.160351
146 1 20 0.126294 39.679477 16.256911 32.025614
147 1 20 0.126294 39.889099 17.624757 30.872499
148 1 26 0.024833 40.414782 19.310349 35.103431
149 1 26 0.024833 40.367432 20.867757 34.283857
150 1 26 0.024833 41.566954 20.597515 35.579354
151 1 26 0.024833 42.218025 17.665245 34.824924
152 1 26 0.024833 43.410350 18.897614 35.352060
153 1 26 0.024833 43.655273 18.015459 33.803789
154 1 26 0.013775 33.591415 22.779340 26.593444
155 1 26 0.013775 32.699365 22.069277 27.954928
156 1 26 0.02378 32.144584 24.300785 28.518140
157 1 26 0.02378 33.215251 25.033289 27.282752
158 1 26 0.02378 33.347853 25.479134 29.044651
159 1 20 0.090463 34.057251 23.045767 32.589649
160 1 20 0.090463 35.551272 24.023480 32.647429
161 1 26 0.032575 35.397901 20.943222 32.416841
162 1 26 0.032575 35.731732 21.900266 33.900894
163 1 20 0.044715 37.818826 21.048856 33.051015
164 1 20 0.044715 37.773162 22.852926 32.883259
165 1 20 0.110408 38.842917 22.224765 29.614397
166 1 20 0.110408 39.032608 23.205145 31.084698
167 1 20 0.146648 40.018430 21.094465 32.198088
168 1 20 0.146648 39.723080 20.225087 30.679412
169 1 26 0.058418 43.649144 20.925316 34.201203
170 1 26 0.058418 43.874048 20.140334 32.617084
171 1 26 0.013285 45.015368 22.071616 31.998182
172 1 26 0.013285 44.692187 22.846797 33.578653
173 1 26 0.013285 44.305197 23.692235 32.025437
174 1 26 -0.017702 36.316919 23.206393 28.558934
175 1 26 -0.017702 35.707373 23.923201 27.020044
176 1 26 -0.000851 35.665323 26.337562 26.593232
177 1 26 -0.000851 36.259959 27.478329 27.850250
178 1 26 -0.000851 34.654338 26.783854 28.005170
179 1 20 0.110657 39.659889 26.522424 25.574210
180 1 20 0.110657 39.734288 24.834916 26.189777
181 1 26 0.056777 40.474521 25.802258 28.454209
182 1 26 0.056777 40.500749 27.432522 27.706157
183 1 20 0.047908 42.190628 26.596152 26.029483
184 1 20 0.047908 42.185345 24.975536 26.765702
185 1 20 0.122756 42.425557 24.852411 29.064730
186 1 20 0.122756 44.124795 25.343923 29.200377
187 1 20 0.127015 43.510989 27.465067 30.290215
188 1 20 0.127015 41.758339 27.126036 30.119259
189 1 26 0.003221 40.899990 22.660981 33.230612
190 1 26 0.003221 42.115492 22.785478 34.500477
191 1 26 0.009344 44.052241 25.042692 33.683821
192 1 26 0.009344 43.055640 24.896628 35.160147
193 1 26 0.009344 42.935971 26.340896 34.105572
194 1 26 0.009344 39.683756 24.640726 33.507909
195 1 26 0.009344 40.505778 26.163844 33.980328
196 1 26 0.009344 40.559819 24.733724 35.075221
197 1 26 -0.000851 36.868637 24.917451 30.539481
198 1 26 -0.000851 35.295951 25.790355 30.350859
199 1 26 -0.000851 36.852184 26.661663 30.147934
200 2 5 -0.17012 14.122614 10.487010 21.909845
201 2 5 -0.080377 14.872383 11.625849 21.232139
202 2 1 0.457661 16.312546 11.221277 20.975135
203 2 61 -0.517308 17.055069 11.013799 21.920394
204 2 37 -0.494922 16.745027 11.052761 19.683879
205 2 5 0.377671 18.091844 10.636603 19.263531
206 2 5 -0.087202 19.118293 11.689739 19.718396
207 2 5 -0.087202 18.431607 9.258500 19.872884
208 2 5 -0.202714 18.090767 10.537727 17.702999
209 2 79 1.146806 19.626468 9.978918 16.861006
210 2 61 -0.692005 19.881990 8.320779 17.230644
211 2 61 -0.692005 19.336284 10.111619 15.172081
212 2 61 -0.692005 21.012862 10.901110 17.280056
213 2 5 0.033234 14.705117 13.015178 21.916069
214 2 5 -0.040801 14.978713 13.284938 23.435852
215 2 1 0.149139 16.400419 13.010921 23.908096
216 2 61 -0.406453 16.574045 12.310316 24.893705
217 2 37 -0.133397 17.461366 13.620371 23.292530
218 2 5 0.36877 18.855277 13.605521 23.771705
219 2 5 -0.082028 18.916110 14.342643 25.126054
220 2 5 -0.082028 19.378936 12.159002 23.943370
221 2 5 0.146913 19.722648 14.370377 22.720101
222 2 79 1.035104 21.534979 14.489776 22.997179
223 2 61 -0.654391 21.874530 15.253725 24.496606
224 2 61 -0.654391 22.278630 12.941657 22.956111
225 2 61 -0.654391 22.206291 15.453429 21.743097
226 2 5 -0.191501 13.907879 12.707029 24.434892
227 2 5 -0.030882 12.463786 13.243075 24.225372
228 2 1 0.063201 12.486465 14.766751 24.209998
229 2 61 -0.428116 12.878691 15.358278 25.206363
230 2 37 -0.148761 12.081379 15.453676 23.098882
231 2 5 0.235116 12.073967 16.917618 22.957922
232 2 5 -0.126052 11.142416 17.537425 24.023889
233 2 5 -0.126052 13.509733 17.464135 23.121713
234 2 5 -0.155508 11.543362 17.249244 21.525916
235 2 79 1.168132 11.477365 19.011047 21.004914
236 2 61 -0.694017 13.085037 19.592821 20.836732
237 2 61 -0.694017 10.734408 19.037213 19.455321
238 2 61 -0.694017 10.593786 20.013094 22.083460
239 2 5 0.009267 11.453647 12.822702 25.338988
240 2 5 0.030543 11.025302 11.325199 25.532734
241 2 5 -0.07009 10.601781 10.762712 24.149852
242 2 1 0.588752 12.155187 10.475208 26.100490
243 2 61 -0.525073 12.609069 10.734233 27.202222
244 2 63 -0.308902 12.616578 9.402967 25.397915
245 2 5 0.066477 13.465520 8.402387 25.841723
246 2 5 -0.00172 14.963689 8.756394 25.794246
247 2 5 0.170208 15.395428 9.780489 26.837388
248 2 63 -0.461077 16.801488 9.928630 26.796780
249 2 5 0.033257 17.287074 10.345544 28.059133
250 2 5 0.017087 18.422080 11.339782 27.874484
251 2 63 -0.203728 18.864029 11.736113 29.121820
252 2 1 0.093716 18.797891 12.997077 29.628276
253 2 61 -0.215755 18.493040 13.942067 28.914300
254 2 5 0.099241 19.172530 13.215528 31.078437
255 2 5 -0.098746 18.512217 12.155905 31.993503
256 2 5 -0.098746 20.700425 12.964747 31.152545
257 2 5 -0.021285 9.721984 11.209299 26.431855
258 2 5 0.071716 9.572934 11.588625 27.965859
259 2 5 -0.106297 8.072656 11.405860 28.293282
260 2 1 0.537843 10.328814 10.583904 28.840004
261 2 61 -0.543701 10.041424 9.396135 28.754514
262 2 63 -0.193282 11.292600 10.983653 29.714560
263 2 5 -0.093861 11.810399 10.202056 30.737579
264 2 5 0.020792 13.316760 9.966112 30.583317
265 2 5 -0.034582 14.146468 11.250958 30.644587
266 2 63 -0.280932 13.889485 12.041571 29.501454
267 2 5 -0.050274 14.235607 13.394256 29.723353
268 2 5 -0.063808 15.745456 13.631350 29.663152
269 2 63 -0.129316 16.010771 14.986530 29.725134
270 2 1 0.241915 16.721088 15.809668 30.559693
271 2 61 -0.431956 16.669796 16.992991 30.254580
272 2 5 0.076778 17.525280 15.435377 31.851876
273 2 5 0.007712 18.908967 14.682767 31.584002
274 2 5 -0.061894 18.000634 16.774378 32.499247
275 2 5 0.056116 10.020169 13.080214 28.203765
276 2 5 0.05545 9.629897 14.000305 29.426274
277 2 5 -0.05119 8.131753 14.399882 29.414516
278 2 1 0.569341 10.461978 15.275694 29.274283
279 2 61 -0.460243 11.681279 15.187719 29.294395
280 2 63 -0.319007 9.877609 16.489576 29.058752
281 2 5 -0.108445 10.585480 17.659222 28.832589
282 2 5 0.012954 11.329108 18.121125 30.093845
283 2 5 0.08119 12.233000 19.329838 29.792268
284 2 63 -0.429479 12.889869 19.811591 30.951259
285 2 5 0.037426 13.891354 18.918046 31.413699
286 2 5 -0.124873 13.500228 18.439774 32.813155
287 2 63 -0.339884 14.420628 17.559535 33.349843
288 2 1 0.702982 14.608503 16.272398 32.945752
289 2 61 -0.572459 13.992893 15.832318 31.986438
290 2 5 0.076161 15.503308 15.349863 33.758910
291 2 5 -0.064226 16.634109 14.663769 32.899483
292 2 5 -0.072611 16.087409 16.103422 34.987408
293 2 5 -0.072611 14.613449 14.222730 34.340016
294 2 5 -0.05119 9.970002 13.369779 30.788090
295 2 26 0.044876 14.183577 9.570333 21.284528
296 2 26 0.044876 13.057853 10.758222 22.008105
297 2 26 0.044876 14.566315 10.246916 22.891627
298 2 26 0.064026 14.388876 11.751040 20.237682
299 2 27 0.2808 16.054040 11.224333 18.936775
300 2 26 0.020319 18.890060 12.677968 19.264916
301 2 26 0.020319 20.150625 11.398120 19.454487
302 2 26 0.020319 19.104433 11.805006 20.811719
303 2 26 0.020319 19.449012 8.933606 19.579485
304 2 26 0.020319 17.696611 8.495831 19.537553
305 2 26 0.020319 18.428300 9.279129 20.979977
306 2 20 0.04237 17.294813 9.826815 17.391693
307 2 20 0.04237 17.823316 11.527464 17.273401
308 2 26 -0.000613 15.322240 13.722089 21.320682
309 2 26 -0.000613 13.660979 13.336330 21.729515
310 2 26 0.111889 14.898417 14.387898 23.538115
311 2 27 0.166048 17.251635 14.182538 22.453797
312 2 26 0.004168 18.594115 15.399160 25.005315
313 2 26 0.004168 19.933054 14.321811 25.559714
314 2 26 0.004168 18.245209 13.880503 25.870227
315 2 26 0.004168 20.414610 12.160069 24.333934
316 2 26 0.004168 19.368477 11.607587 22.987415
317 2 26 0.004168 18.794330 11.576873 24.679535
318 2 20 -0.076599 19.596843 13.886791 21.730480
319 2 20 -0.076599 19.340587 15.408692 22.613194
320 2 26 0.093897 13.910473 11.606767 24.424387
321 2 26 0.093897 14.209601 13.018090 25.460552
322 2 26 0.093901 12.081907 12.884638 23.249967
323 2 27 0.17792 11.759729 14.891397 22.295505
324 2 26 0.041813 10.105572 17.159061 23.897432
325 2 26 0.041813 11.133702 18.640182 23.962117
326 2 26 0.041813 11.470527 17.299922 25.054552
327 2 26 0.041813 13.528231 18.568123 23.034698
328 2 26 0.041813 14.179509 17.027370 22.350082
329 2 26 0.041813 13.934796 17.230401 24.117202
330 2 20 0.02694 12.186456 16.733779 20.779751
331 2 20 0.02694 10.519305 16.832994 21.409781
332 2 26 0.061117 11.853367 13.225487 26.280149
333 2 26 0.061117 10.517534 13.374203 25.093201
334 2 26 0.003416 11.447560 10.746546 23.446831
335 2 26 0.003416 9.787523 11.371369 23.699897
336 2 26 0.003416 10.240908 9.714449 24.235436
337 2 20 0.042187 13.331551 7.549447 25.143133
338 2 20 0.042187 13.157403 8.042822 26.848141
339 2 26 0.040297 15.251430 9.094756 24.778094
340 2 26 0.040297 15.522191 7.819233 26.011838
341 2 20 0.060931 15.050067 9.383130 27.820938
342 2 20 0.060931 14.933881 10.765002 26.627981
343 2 20 0.02895 16.517183 10.872985 28.669070
344 2 20 0.02895 17.646767 9.459732 28.625982
345 2 20 0.126294 19.260182 10.874283 27.314207
346 2 20 0.126294 18.034554 12.194057 27.288634
347 2 26 0.024833 18.807621 11.130907 31.680721
348 2 26 0.024833 17.415606 12.166666 31.978982
349 2 26 0.024833 18.842735 12.291193 33.045750
350 2 26 0.024833 20.959945 11.937610 30.813337
351 2 26 0.024833 21.076771 13.078892 32.192493
352 2 26 0.024833 21.250529 13.684987 30.507921
353 2 26 0.013775 8.953693 11.814796 25.897599
354 2 26 0.013775 9.379445 10.151816 26.352372
355 2 26 0.02378 7.726581 10.381980 28.031564
356 2 26 0.02378 7.445868 12.123916 27.721834
357 2 26 0.02378 7.886713 11.509173 29.379663
358 2 20 0.090463 11.310969 9.209746 30.786303
359 2 20 0.090463 11.615809 10.710796 31.705695
360 2 26 0.032575 13.519983 9.423693 29.636354
361 2 26 0.032575 13.637847 9.316111 31.426417
362 2 20 0.044715 15.218250 10.960375 30.650609
363 2 20 0.044715 13.903953 11.767382 31.602586
364 2 20 0.110408 13.784163 13.978657 28.896974
365 2 20 0.110408 13.789815 13.779714 30.663129
366 2 20 0.146648 16.260820 13.066274 30.435996
367 2 20 0.146648 16.094955 13.257149 28.679443
368 2 26 0.058418 19.423265 14.695731 32.573046
369 2 26 0.058418 19.505086 15.345828 30.915671
370 2 26 0.013285 18.687277 17.327553 31.820910
371 2 26 0.013285 18.548517 16.601467 33.450875
372 2 26 0.013285 17.149567 17.459350 32.686686
373 2 26 -0.017702 11.124941 13.033867 28.193996
374 2 26 -0.017702 9.677629 13.663545 27.320879
375 2 26 -0.000851 7.855118 14.861305 28.441993
376 2 26 -0.000851 7.928657 15.142474 30.216978
377 2 26 -0.000851 7.440773 13.567523 29.612155
378 2 20 0.110657 9.877541 18.457448 28.523921
379 2 20 0.110657 11.298541 17.491826 27.994321
380 2 26 0.056777 11.958616 17.294481 30.471558
381 2 26 0.056777 10.590559 18.379392 30.883165
382 2 20 0.047908 11.600031 20.154659 29.401330
383 2 20 0.047908 12.970383 19.095558 28.990378
384 2 20 0.122756 14.065867 18.048636 30.740309
385 2 20 0.122756 14.859257 19.460262 31.465042
386 2 20 0.127015 13.440810 19.330621 33.473762
387 2 20 0.127015 12.497061 17.960822 32.803733
388 2 26 0.003221 16.143497 13.855846 32.349119
389 2 26 0.003221 17.303635 14.170778 33.637683
390 2 26 0.009344 16.694537 16.987030 34.737984
391 2 26 0.009344 16.714830 15.423054 35.602654
392 2 26 0.009344 15.265802 16.477332 35.636977
393 2 26 0.009344 14.135555 13.630409 33.529313
394 2 26 0.009344 13.800439 14.643541 34.971550
395 2 26 0.009344 15.213411 13.525323 34.964507
396 2 26 -0.000851 11.055460 13.151668 30.865321
397 2 26 -0.000851 9.397693 12.433477 30.948333
398 2 26 -0.000851 9.716511 14.069966 31.613520
399 3 5 -0.17012 24.385153 9.360231 11.804154
400 3 5 -0.080377 24.141892 8.207505 12.768746
401 3 1 0.457661 25.399110 7.368078 12.904994
402 3 61 -0.517308 25.815128 6.749899 11.939236
403 3 37 -0.494922 26.072612 7.352266 14.100370
404 3 5 0.377671 27.315406 6.620763 14.390479
405 3 5 -0.087202 27.065966 5.108976 14.242573
406 3 5 -0.087202 28.432505 7.076779 13.426084
407 3 5 -0.202714 27.724044 6.948336 15.863825
408 3 79 1.146806 29.282354 6.226930 16.520211
409 3 61 -0.692005 30.608921 6.957761 15.709374
410 3 61 -0.692005 29.364203 6.663728 18.180569
411 3 61 -0.692005 29.363461 4.518352 16.370838
412 3 5 0.033234 22.846291 7.388237 12.492719
413 3 5 -0.040801 22.487834 6.752143 11.105542
414 3 1 0.149139 23.478857 5.723901 10.576450
415 3 61 -0.406453 23.902262 5.839202 9.436339
416 3 37 -0.133397 23.814264 4.634568 11.335934
417 3 5 0.36877 24.591627 3.471514 10.871361
418 3 5 -0.082028 23.784664 2.749966 9.771592
419 3 5 -0.082028 25.968766 3.899777 10.309059
420 3 5 0.146913 24.783109 2.515103 12.092763
421 3 79 1.035104 25.763793 0.979069 11.859464
422 3 61 -0.654391 25.079291 -0.001342 10.627618
423 3 61 -0.654391 27.400136 1.332695 11.473844
424 3 61 -0.654391 25.727044 0.091484 13.330127
425 3 5 -0.191501 22.040234 7.764575 9.985996
426 3 5 -0.030882 20.781864 8.608220 10.334441
427 3 1 0.063201 19.653792 7.679764 10.767755
428 3 61 -0.428116 19.239743 6.847747 9.972269
429 3 37 -0.148761 19.123305 7.775142 12.024746
430 3 5 0.235116 18.048338 6.927543 12.562403
431 3 5 -0.126052 16.772759 7.101641 11.707522
432 3 5 -0.126052 18.497454 5.449309 12.555288
433 3 5 -0.155508 17.775591 7.389037 14.030323
434 3 79 1.168132 16.521742 6.473827 15.015211
435 3 61 -0.694017 17.122788 4.896951 15.337015
436 3 61 -0.694017 16.371489 7.304609 16.512252
437 3 61 -0.694017 14.986000 6.379131 14.253239
438 3 5 0.009267 20.229075 9.459126 9.148010
439 3 5 0.030543 21.046263 10.658493 8.550301
440 3 5 -0.07009 21.501936 11.563816 9.725409
441 3 1 0.588752 22.267866 10.187307 7.771109
442 3 61 -0.525073 22.119618 9.488342 6.782986
443 3 63 -0.308902 23.512457 10.589731 8.152215
444 3 5 0.066477 24.698722 10.449713 7.450788
445 3 5 -0.00172 25.376823 9.074298 7.593947
446 3 5 0.170208 24.652161 7.944069 6.872309
447 3 63 -0.461077 25.426133 6.762897 6.952298
448 3 5 0.033257 25.144471 5.916970 5.853108
449 3 5 0.017087 25.144267 4.465220 6.303958
450 3 63 -0.203728 24.854096 3.668321 5.213546
451 3 1 0.093716 23.756147 2.877351 5.072924
452 3 61 -0.215755 23.008889 2.671599 6.018955
453 3 5 0.099241 23.514205 2.204947 3.738616
454 3 5 -0.098746 23.702734 3.199566 2.567569
455 3 5 -0.098746 24.639426 1.147988 3.598747
456 3 5 -0.021285 20.127825 11.592869 7.653696
457 3 5 0.071716 19.420438 11.219106 6.282865
458 3 5 -0.106297 18.552188 12.445541 5.917565
459 3 1 0.537843 20.459421 11.080576 5.166500
460 3 61 -0.543701 21.191568 12.031926 4.922390
461 3 63 -0.193282 20.572046 9.937521 4.435561
462 3 5 -0.093861 21.262892 9.825868 3.237294
463 3 5 0.020792 22.412553 8.815992 3.321082
464 3 5 -0.034582 21.950738 7.386589 3.615243
465 3 63 -0.280932 21.441506 7.309504 4.931527
466 3 5 -0.050274 20.592711 6.189996 5.089785
467 3 5 -0.063808 21.368722 4.877713 5.213067
468 3 63 -0.129316 20.501997 3.847297 5.525761
469 3 1 0.241915 20.146872 2.655474 4.949534
470 3 61 -0.431956 19.290756 2.038532 5.567940
471 3 5 0.076778 20.652280 2.029615 3.604387
472 3 5 0.007712 22.138280 1.444836 3.655476
473 3 5 -0.061894 19.803015 0.744349 3.349803
474 3 5 0.056116 18.526817 9.934534 6.463905
475 3 5 0.05545 17.329348 9.478600 5.541083
476 3 5 -0.05119 16.097426 10.412416 5.661877
477 3 1 0.569341 16.921899 8.089560 6.037704
478 3 61 -0.460243 17.743915 7.185538 5.994419
479 3 63 -0.319007 15.691225 7.855735 6.578273
480 3 5 -0.108445 15.301755 6.639908 7.117146
481 3 5 0.012954 15.147385 5.565450 6.031414
482 3 5 0.08119 14.866946 4.185871 6.653566
483 3 63 -0.429479 14.665513 3.184874 5.671603
484 3 5 0.037426 15.862413 2.858235 4.981688
485 3 5 -0.124873 15.677730 3.210882 3.504619
486 3 63 -0.339884 16.798136 2.926938 2.746953
487 3 1 0.702982 17.969688 3.620873 2.781980
488 3 61 -0.572459 18.122653 4.530409 3.583401
489 3 5 0.076161 19.046590 3.334911 1.746856
490 3 5 -0.064226 20.451895 3.009365 2.384969
491 3 5 -0.072611 18.580523 2.215961 0.772707
492 3 5 -0.072611 19.214445 4.606706 0.878338
493 3 5 -0.05119 17.723107 9.357252 4.058516
494 3 26 0.044876 25.246553 9.969238 12.153634
495 3 26 0.044876 23.496320 10.013298 11.783980
496 3 26 0.044876 24.631546 8.988979 10.794266
497 3 26 0.064026 23.959786 8.680930 13.759252
498 3 27 0.2808 25.673186 7.917713 14.865740
499 3 26 0.020319 26.278054 4.772754 14.950019
500 3 26 0.020319 27.985479 4.521888 14.416413
501 3 26 0.020319 26.735981 4.863332 13.222964
502 3 26 0.020319 29.374059 6.526361 13.619138
503 3 26 0.020319 28.619621 8.166086 13.538893
504 3 26 0.020319 28.177292 6.877254 12.367242
505 3 20 0.04237 27.829087 8.050161 15.967739
506 3 20 0.04237 26.905420 6.637779 16.548714
507 3 26 -0.000613 22.827386 6.584027 13.259491
508 3 26 -0.000613 21.993907 8.044058 12.760124
509 3 26 0.111889 21.586606 6.136232 11.310162
510 3 27 0.166048 23.440900 4.605309 12.296784
511 3 26 0.004168 22.815531 2.389087 10.177837
512 3 26 0.004168 24.341268 1.893029 9.349074
513 3 26 0.004168 23.554081 3.423993 8.928982
514 3 26 0.004168 26.529834 3.022455 9.933996
515 3 26 0.004168 26.582003 4.402338 11.076776
516 3 26 0.004168 25.883913 4.579635 9.441204
517 3 20 -0.076599 25.280663 3.072958 12.911463
518 3 20 -0.076599 23.787241 2.209729 12.480697
519 3 26 0.093897 22.871292 8.423893 9.693875
520 3 26 0.093897 21.774329 7.166422 9.085286
521 3 26 0.093901 21.022626 9.288831 11.173803
522 3 27 0.17792 19.517941 8.501370 12.642715
523 3 26 0.041813 16.437925 8.160781 11.724999
524 3 26 0.041813 15.951525 6.457999 12.069825
525 3 26 0.041813 16.934646 6.810832 10.651325
526 3 26 0.041813 17.697678 4.787980 12.942207
527 3 26 0.041813 19.409033 5.319710 13.177386
528 3 26 0.041813 18.724503 5.086466 11.533964
529 3 20 0.02694 18.724235 7.323111 14.606313
530 3 20 0.02694 17.474996 8.459121 14.027472
531 3 26 0.061117 19.973446 8.743852 8.353761
532 3 26 0.061117 19.283578 9.902559 9.535663
533 3 26 0.003416 22.192309 11.032724 10.397099
534 3 26 0.003416 20.633266 11.912706 10.325098
535 3 26 0.003416 22.046666 12.459673 9.355112
536 3 20 0.042187 25.406399 11.185478 7.888195
537 3 20 0.042187 24.560914 10.733664 6.384261
538 3 26 0.040297 25.519958 8.820656 8.664007
539 3 26 0.040297 26.382888 9.162115 7.127402
540 3 20 0.060931 24.524455 8.283714 5.817381
541 3 20 0.060931 23.669188 7.750659 7.344007
542 3 20 0.02895 24.137011 6.098201 5.411374
543 3 20 0.02895 25.913011 6.069586 5.064810
544 3 20 0.126294 26.137026 4.185016 6.714970
545 3 20 0.126294 24.386162 4.356525 7.101859
546 3 26 0.024833 24.724649 3.636642 2.586823
547 3 26 0.024833 23.014062 4.052991 2.584291
548 3 26 0.024833 23.581221 2.679708 1.593018
549 3 26 0.024833 25.646249 1.618932 3.642817
550 3 26 0.024833 24.565020 0.607082 2.630222
551 3 26 0.024833 24.579285 0.396627 4.416512
552 3 26 0.013775 19.308285 11.922163 8.333584
553 3 26 0.013775 20.726349 12.508209 7.439588
554 3 26 0.02378 19.162363 13.374735 5.887912
555 3 26 0.02378 17.744231 12.603102 6.664158
556 3 26 0.02378 18.125392 12.342796 4.901317
557 3 20 0.090463 21.687083 10.802833 2.917784
558 3 20 0.090463 20.551288 9.507122 2.446124
559 3 26 0.032575 23.150320 9.144553 4.082663
560 3 26 0.032575 22.920441 8.810091 2.331925
561 3 20 0.044715 22.836126 6.721771 3.529827
562 3 20 0.044715 21.205648 7.102440 2.835903
563 3 20 0.110408 20.049279 6.334276 6.044821
564 3 20 0.110408 19.823258 6.146411 4.291957
565 3 20 0.146648 21.948968 4.681049 4.314826
566 3 20 0.146648 22.079106 4.997367 6.056213
567 3 26 0.058418 22.236877 0.865449 2.708129
568 3 26 0.058418 22.154904 0.695837 4.480338
569 3 26 0.013285 19.960840 -0.007842 4.154119
570 3 26 0.013285 20.070327 0.256537 2.387383
571 3 26 0.013285 18.717203 0.967029 3.357572
572 3 26 -0.017702 19.252545 9.100224 6.460765
573 3 26 -0.017702 18.064218 10.003993 7.473000
574 3 26 -0.000851 15.786809 10.518786 6.723688
575 3 26 -0.000851 15.240265 9.988530 5.094223
576 3 26 -0.000851 16.249975 11.417740 5.243082
577 3 20 0.110657 14.326524 6.767822 7.633073
578 3 20 0.110657 16.052111 6.326417 7.877316
579 3 26 0.056777 16.080261 5.504060 5.441277
580 3 26 0.056777 14.323328 5.852788 5.343265
581 3 20 0.047908 13.936121 4.253327 7.255917
582 3 20 0.047908 15.674940 3.887222 7.360390
583 3 20 0.122756 16.769391 3.358368 5.390395
584 3 20 0.122756 16.047204 1.767650 5.081431
585 3 20 0.127015 14.829137 2.610103 3.114113
586 3 20 0.127015 15.414393 4.283930 3.381940
587 3 26 0.003221 20.871556 3.971583 2.692153
588 3 26 0.003221 21.081498 2.654896 1.539868
589 3 26 0.009344 18.348283 1.254351 1.255358
590 3 26 0.009344 19.351139 2.027808 -0.005646
591 3 26 0.009344 17.647739 2.522867 0.250683
592 3 26 0.009344 19.535826 5.474358 1.495072
593 3 26 0.009344 18.255631 4.881867 0.386541
594 3 26 0.009344 19.978767 4.448651 0.086410
595 3 26 -0.000851 18.547252 8.626095 3.924539
596 3 26 -0.000851 18.035815 10.338511 3.647147
597 3 26 -0.000851 16.861477 8.994251 3.457120
598 4 5 -0.17012 31.178449 11.526934 39.863021
599 4 5 -0.080377 32.243871 11.273866 38.805088
600 4 1 0.457661 32.278456 12.423835 37.815050
601 4 61 -0.517308 31.313292 12.626497 37.097214
602 4 37 -0.494922 33.377470 13.244325 37.773303
603 4 5 0.377671 33.558622 14.414159 36.900110
604 4 5 -0.087202 33.548918 13.961199 35.428944
605 4 5 -0.087202 32.431602 15.439772 37.152822
606 4 5 -0.202714 34.942237 15.054206 37.247946
607 4 79 1.146806 35.445327 16.584612 36.362308
608 4 61 -0.692005 34.424710 17.870910 36.867413
609 4 61 -0.692005 37.047639 16.942032 36.871355
610 4 61 -0.692005 35.406152 16.431971 34.652543
611 4 5 0.033234 32.191212 9.861267 38.151051
612 4 5 -0.040801 30.908000 9.243768 37.495742
613 4 1 0.149139 30.330917 10.019337 36.318961