LAMMPS Description

5646  atoms
4572  bonds
5346  angles
6480  dihedrals
1188  impropers

87  atom types
840  bond types
4614  angle types
985  dihedral types
38  improper types

-0.5 40.5 xlo xhi
-0.5 40.5 ylo yhi
-0.5 40.5 zlo zhi

Masses

1 12.01
2 12.01
3 12.01
4 12.01
5 12.01
6 12.01
7 12.01
8 12.01
9 12.01
10 12.01
11 12.01
12 12.01
13 12.01
14 12.01
15 12.01
16 12.01
17 12.01
18 12.01
19 12.01
20 1.008
21 1.008
22 1.008
23 1.008
24 1.008
25 1.008
26 1.008
27 1.008
28 1.008
29 1.008
30 1.008
31 1.008
32 1.008
33 19.00
34 35.45
35 79.90
36 126.9
37 14.01
38 14.01
39 14.01
40 14.01
41 14.01
42 14.01
43 14.01
44 14.01
45 14.01
46 14.01
47 14.01
48 14.01
49 14.01
50 14.01
51 14.01
52 14.01
53 14.01
54 14.01
55 14.01
56 14.01
57 14.01
58 14.01
59 14.01
60 14.01
61 16.00
62 16.00
63 16.00
64 16.00
65 30.97
66 30.97
67 30.97
68 30.97
69 30.97
70 30.97
71 30.97
72 30.97
73 30.97
74 30.97
75 30.97
76 32.06
77 32.06
78 32.06
79 32.06
80 32.06
81 32.06
82 32.06
83 32.06
84 24.305
85 40.08
86 19.02
87 35.45

Atoms

1 1 5 -0.051233 15.250944 8.169875 39.081589
2 1 26 -0.000556 14.412398 7.447717 39.176841
3 1 26 -0.000556 14.824052 9.193689 39.022068
4 1 5 0.030247 16.099641 7.845235 37.841752
5 1 26 0.028561 16.456341 6.798490 37.967740
6 1 6 0.077933 17.289576 8.790866 37.802700
7 1 6 -0.200132 17.113695 10.181537 37.663971
8 1 25 0.120991 16.123609 10.605203 37.560015
9 1 6 -0.123165 18.216818 11.039926 37.665543
10 1 25 0.137797 18.063286 12.106710 37.563858
11 1 6 -0.043312 19.509639 10.526439 37.808849
12 1 79 1.139467 20.912109 11.645812 37.846105
13 1 6 -0.123165 19.695588 9.145793 37.942011
14 1 25 0.137797 20.689905 8.734906 38.057141
15 1 6 -0.200132 18.594573 8.283914 37.939064
16 1 25 0.120991 18.762217 7.220359 38.052966
17 1 61 -0.686299 20.902896 12.462645 39.355512
18 1 61 -0.686299 22.367990 10.751415 37.674225
19 1 61 -0.686299 20.756489 12.764646 36.553754
20 1 5 -0.167947 15.208167 7.885731 36.571306
21 1 26 0.053829 14.335665 7.229503 36.787583
22 1 26 0.053829 14.809607 8.910544 36.409644
23 1 5 0.061335 15.857750 7.340159 35.268028
24 1 26 0.066322 16.207366 6.306028 35.486637
25 1 6 0.022005 17.037565 8.191940 34.833915
26 1 6 -0.142215 16.877443 9.548275 34.492871
27 1 25 0.122111 15.900393 10.012101 34.526177
28 1 6 -0.138255 17.980689 10.316827 34.107628
29 1 25 0.125927 17.836760 11.357625 33.850252
30 1 6 -0.052124 19.256904 9.742529 34.060133
31 1 79 1.076745 20.686804 10.712973 33.578487
32 1 6 -0.138255 19.422894 8.395909 34.394742
33 1 25 0.125927 20.405760 7.943792 34.360970
34 1 6 -0.142215 18.323500 7.625007 34.778066
35 1 25 0.122111 18.478703 6.585119 35.035957
36 1 61 -0.647047 20.241541 12.366101 33.444795
37 1 61 -0.647047 21.896404 10.528348 34.780122
38 1 61 -0.647047 21.264482 10.128262 32.073914
39 1 5 -0.099102 14.757712 7.213347 34.171622
40 1 26 0.032456 13.960599 6.576084 34.615059
41 1 26 0.032456 14.297752 8.203316 33.964849
42 1 5 0.015778 15.184731 6.527901 32.840238
43 1 26 0.022425 15.656884 5.555363 33.105144
44 1 6 -0.035969 16.157198 7.395360 32.059399
45 1 6 -0.131756 15.777167 8.673557 31.605754
46 1 25 0.101496 14.791556 9.065778 31.817472
47 1 6 -0.139767 16.660561 9.451613 30.856976
48 1 25 0.14135 16.346473 10.426185 30.506226
49 1 6 -0.051918 17.935638 8.970783 30.550228
50 1 79 1.157597 19.034892 9.978463 29.555175
51 1 6 -0.139767 18.330878 7.708091 31.008771
52 1 25 0.14135 19.315157 7.323022 30.778774
53 1 6 -0.131756 17.448071 6.924987 31.759623
54 1 25 0.101496 17.767206 5.946285 32.095224
55 1 61 -0.691163 19.258573 11.482587 30.351111
56 1 61 -0.691163 20.541006 9.176481 29.362664
57 1 61 -0.691163 18.301937 10.213626 28.021476
58 1 5 -0.000586 13.912929 6.194677 31.995003
59 1 26 -0.010501 13.233314 5.611804 32.655407
60 1 26 -0.010501 13.375606 7.128523 31.724133
61 1 5 -0.032579 14.136198 5.320135 30.724197
62 1 26 0.137701 14.630303 4.380212 31.056278
63 1 6 -0.011695 15.030071 6.021991 29.690930
64 1 6 -0.095646 14.644353 7.234454 29.086870
65 1 25 0.111209 13.731285 7.729785 29.389858
66 1 6 -0.184492 15.386822 7.774814 28.025123
67 1 25 0.122822 15.021313 8.669422 27.537368
68 1 6 -0.022823 16.525356 7.109586 27.532120
69 1 5 0.164417 17.198871 7.580317 26.244565
70 1 6 -0.184492 16.977473 5.963733 28.208832
71 1 25 0.122822 17.860815 5.441085 27.865145
72 1 6 -0.095646 16.238458 5.426076 29.275410
73 1 25 0.111209 16.575354 4.502193 29.728130
74 1 26 -0.040461 18.259956 7.815630 26.474067
75 1 5 -0.072194 17.152141 6.542586 25.058996
76 1 26 0.004392 17.706794 5.630821 25.365509
77 1 26 0.004392 17.711227 6.986601 24.207515
78 1 5 0.060914 12.728311 4.894467 30.119008
79 1 26 -0.029666 12.140015 4.412436 30.929923
80 1 26 -0.029666 12.174870 5.811438 29.824555
81 1 5 -0.080441 12.739708 3.877955 28.915870
82 1 26 0.161633 13.232553 2.946955 29.274937
83 1 6 -0.033909 13.508696 4.465358 27.782190
84 1 6 -0.046469 13.067793 5.648984 27.162573
85 1 25 0.119472 12.171325 6.156283 27.493380
86 1 6 -0.154837 13.785248 6.190259 26.108734
87 1 25 0.088671 13.434189 7.103797 25.645012
88 1 6 -0.050237 14.949184 5.554944 25.663096
89 1 5 0.18978 15.723579 6.148869 24.535723
90 1 6 -0.154837 15.387594 4.368746 26.279781
91 1 25 0.088671 16.284537 3.862018 25.949529
92 1 6 -0.046469 14.670262 3.827633 27.333892
93 1 25 0.119472 15.021653 2.914663 27.798439
94 1 26 -0.043781 15.232662 7.082270 24.179930
95 1 5 -0.103886 15.734124 5.140265 23.331787
96 1 26 0.015134 16.282756 4.218105 23.619389
97 1 26 0.015134 16.318268 5.621790 22.517349
98 1 5 0.02372 11.310978 3.479018 28.392295
99 1 26 -0.032673 10.754366 3.034020 29.244890
100 1 26 -0.032673 10.753168 4.389331 28.087119
101 1 5 -0.070608 11.261115 2.440918 27.204052
102 1 26 0.047784 11.747221 1.506568 27.558983
103 1 6 -0.002343 11.924192 2.911357 25.908537
104 1 6 -0.14064 11.467399 4.057309 25.234137
105 1 25 0.145001 10.586880 4.580555 25.584604
106 1 6 -0.235918 12.202733 4.598963 24.165860
107 1 25 0.13736 11.866935 5.528333 23.723363
108 1 6 -0.03349 13.413630 4.008963 23.749202
109 1 5 0.334804 14.320877 4.734466 22.742374
110 1 6 -0.235918 13.795505 2.787981 24.339056
111 1 25 0.13736 14.709764 2.295115 24.035461
112 1 6 -0.14064 13.057618 2.244884 25.403834
113 1 25 0.145001 13.425889 1.349185 25.887814
114 1 26 -0.102684 13.824452 5.676888 22.420896
115 1 5 -0.093356 14.501229 3.873052 21.487050
116 1 26 -0.000797 13.511552 3.637824 21.040463
117 1 26 -0.000797 15.100584 4.421925 20.729593
118 1 26 -0.000556 15.872265 8.095293 40.000002
119 1 26 -0.040461 16.717056 8.515823 25.886707
120 1 26 0.047784 10.199166 2.202175 26.981589
121 1 26 -0.000797 15.023570 2.922624 21.725124
122 2 5 -0.051233 22.857232 26.073202 10.435110
123 2 26 -0.000556 22.509815 25.915873 9.391897
124 2 26 -0.000556 22.684722 27.137343 10.703099
125 2 5 0.030247 24.341670 25.696885 10.568173
126 2 26 0.028561 24.428284 24.633768 10.250272
127 2 6 0.077933 24.751006 25.830650 12.026336
128 2 6 -0.200132 24.719120 27.076379 12.683059
129 2 25 0.120991 24.421710 27.972020 12.153961
130 2 6 -0.123165 25.064826 27.175511 14.033754
131 2 25 0.137797 25.029122 28.139752 14.524574
132 2 6 -0.043312 25.443425 26.035789 14.750194
133 2 79 1.139467 25.848323 26.174729 16.493197
134 2 6 -0.123165 25.483490 24.794232 14.105658
135 2 25 0.137797 25.771218 23.903543 14.648460
136 2 6 -0.200132 25.140076 24.691554 12.754140
137 2 25 0.120991 25.169427 23.719060 12.279143
138 2 61 -0.686299 24.389231 26.424632 17.361649
139 2 61 -0.686299 26.605425 24.728355 17.025998
140 2 61 -0.686299 26.912209 27.504827 16.705718
141 2 5 -0.167947 25.188482 26.549397 9.585049
142 2 26 0.053829 24.711810 26.430168 8.586430
143 2 26 0.053829 25.121037 27.626942 9.848818
144 2 5 0.061335 26.673619 26.119445 9.418771
145 2 26 0.066322 26.670881 25.045082 9.126903
146 2 6 0.022005 27.451975 26.290589 10.711373
147 2 6 -0.142215 27.615836 27.555293 11.307417
148 2 25 0.122111 27.193199 28.438921 10.847582
149 2 6 -0.138255 28.326412 27.687321 12.504868
150 2 25 0.125927 28.440384 28.667859 12.947329
151 2 6 -0.052124 28.879986 26.559494 13.123220
152 2 79 1.076745 29.786345 26.705256 14.664527
153 2 6 -0.138255 28.723584 25.301190 12.535756
154 2 25 0.125927 29.147989 24.423969 13.006860
155 2 6 -0.142215 28.016368 25.165747 11.339348
156 2 25 0.122111 27.906007 24.179785 10.906146
157 2 61 -0.647047 29.632513 28.303568 15.273380
158 2 61 -0.647047 29.130413 25.586286 15.786491
159 2 61 -0.647047 31.434328 26.336899 14.368215
160 2 5 -0.099102 27.293776 26.901896 8.222341
161 2 26 0.032456 26.632948 26.696031 7.351102
162 2 26 0.032456 27.247943 27.996502 8.406984
163 2 5 0.015778 28.732637 26.486174 7.796168
164 2 26 0.022425 28.727861 25.383262 7.646191
165 2 6 -0.035969 29.755022 26.874520 8.850589
166 2 6 -0.131756 29.947674 28.224431 9.203619
167 2 25 0.101496 29.361396 29.006846 8.740804
168 2 6 -0.139767 30.913685 28.579941 10.145351
169 2 25 0.14135 31.056125 29.623486 10.394737
170 2 6 -0.051918 31.700776 27.597951 10.751402
171 2 79 1.157597 32.958813 28.089160 11.930370
172 2 6 -0.139767 31.508116 26.251025 10.420434
173 2 25 0.14135 32.110359 25.480011 10.881762
174 2 6 -0.131756 30.540746 25.890595 9.476685
175 2 25 0.101496 30.414496 24.845159 9.224775
176 2 61 -0.691163 32.199680 28.959147 13.200322
177 2 61 -0.691163 33.747182 26.695646 12.551021
178 2 61 -0.691163 34.094682 29.084544 11.115649
179 2 5 -0.000586 29.070869 27.126683 6.411146
180 2 26 -0.010501 28.248405 26.842879 5.717778
181 2 26 -0.010501 29.059837 28.234964 6.486953
182 2 5 -0.032579 30.391545 26.651661 5.733067
183 2 26 0.137701 30.330326 25.544950 5.636549
184 2 6 -0.011695 31.630428 27.017710 6.563986
185 2 6 -0.095646 31.964971 28.358791 6.834754
186 2 25 0.111209 31.313688 29.160378 6.512051
187 2 6 -0.184492 33.185619 28.683902 7.447025
188 2 25 0.122822 33.441652 29.727965 7.574324
189 2 6 -0.022823 34.107807 27.677504 7.791369
190 2 5 0.164417 35.517215 28.044856 8.251398
191 2 6 -0.184492 33.725773 26.334677 7.629529
192 2 25 0.122822 34.405723 25.538095 7.902842
193 2 6 -0.095646 32.501731 26.008579 7.022743
194 2 25 0.111209 32.269659 24.965822 6.847202
195 2 26 -0.040461 35.679005 27.605313 9.258657
196 2 5 -0.072194 36.670662 27.559927 7.292728
197 2 26 0.004392 36.653509 26.450429 7.252452
198 2 26 0.004392 37.635456 27.848583 7.762405
199 2 5 0.060914 30.463463 27.225538 4.251485
200 2 26 -0.029666 29.528140 26.933004 3.726487
201 2 26 -0.029666 30.469522 28.335291 4.298895
202 2 5 -0.080441 31.653144 26.731381 3.345155
203 2 26 0.161633 31.565827 25.625170 3.259953
204 2 6 -0.033909 32.947015 27.099561 3.986995
205 2 6 -0.046469 33.277642 28.451184 4.194578
206 2 25 0.119472 32.605857 29.245962 3.898817
207 2 6 -0.154837 34.481684 28.788221 4.790385
208 2 25 0.088671 34.719452 29.833227 4.946149
209 2 6 -0.050237 35.367252 27.779396 5.184091
210 2 5 0.18978 36.656817 28.148208 5.835555
211 2 6 -0.154837 35.038602 26.427837 4.972324
212 2 25 0.088671 35.710008 25.633113 5.268929
213 2 6 -0.046469 33.834343 26.090790 4.376777
214 2 25 0.119472 33.595892 25.045838 4.221815
215 2 26 -0.043781 36.741644 29.254425 5.924498
216 2 5 -0.103886 37.846380 27.661057 4.933070
217 2 26 0.015134 37.845259 26.551570 4.877143
218 2 26 0.015134 38.783475 27.956356 5.453695
219 2 5 0.02372 31.639877 27.315650 1.884674
220 2 26 -0.032673 30.675028 27.024586 1.416584
221 2 26 -0.032673 31.654727 28.425307 1.922028
222 2 5 -0.070608 32.794674 26.832821 0.922707
223 2 26 0.047784 32.708940 25.728641 0.829313
224 2 6 -0.002343 34.207639 27.207665 1.372557
225 2 6 -0.14064 34.585801 28.552438 1.531492
226 2 25 0.145001 33.900563 29.346155 1.262435
227 2 6 -0.235918 35.809787 28.884163 2.137411
228 2 25 0.13736 36.032407 29.927957 2.319691
229 2 6 -0.03349 36.682661 27.878742 2.601301
230 2 5 0.334804 37.900329 28.249434 3.463291
231 2 6 -0.235918 36.360461 26.536738 2.318873
232 2 25 0.13736 37.012576 25.736655 2.643791
233 2 6 -0.14064 35.138878 26.206168 1.709248
234 2 25 0.145001 34.887438 25.160782 1.582428
235 2 26 -0.102684 37.950691 29.356508 3.562266
236 2 5 -0.093356 39.189941 27.803615 2.764330
237 2 26 -0.000797 39.255717 28.264045 1.755415
238 2 26 -0.000797 40.075172 28.129306 3.351290
239 2 26 -0.000556 22.239667 25.432947 11.101272
240 2 26 -0.040461 35.607163 29.148468 8.347990
241 2 26 0.047784 32.626276 27.268167 -0.085430
242 2 26 -0.000797 39.227004 26.698934 2.658783
243 3 5 -0.051233 32.730743 8.836096 11.196736
244 3 26 -0.000556 32.799427 9.443547 12.124114
245 3 26 -0.000556 32.404211 9.500378 10.368435
246 3 5 0.030247 31.753199 7.666234 11.393471
247 3 26 0.028561 32.134977 7.076692 12.256875
248 3 6 0.077933 31.763099 6.805019 10.140515
249 3 6 -0.200132 31.339234 7.316821 8.898524
250 3 25 0.120991 30.975526 8.332349 8.814928
251 3 6 -0.123165 31.388233 6.522257 7.749619
252 3 25 0.137797 31.064175 6.933336 6.802022
253 3 6 -0.043312 31.863105 5.208832 7.820360
254 3 79 1.139467 31.954231 4.214538 6.328925
255 3 6 -0.123165 32.281627 4.689075 9.050476
256 3 25 0.137797 32.654544 3.675695 9.119354
257 3 6 -0.200132 32.232340 5.480398 10.202195
258 3 25 0.120991 32.570228 5.059880 11.140931
259 3 61 -0.686299 33.257772 4.798303 5.377290
260 3 61 -0.686299 32.225918 2.571356 6.747516
261 3 61 -0.686299 30.471384 4.364149 5.477479
262 3 5 -0.167947 30.353325 8.213028 11.783047
263 3 26 0.053829 30.520239 8.898405 12.643902
264 3 26 0.053829 29.933358 8.827325 10.957522
265 3 5 0.061335 29.318204 7.153826 12.257131
266 3 26 0.066322 29.785688 6.595937 13.099549
267 3 6 0.022005 28.962406 6.184289 11.143867
268 3 6 -0.142215 28.352638 6.624826 9.954033
269 3 25 0.122111 28.116373 7.671169 9.811851
270 3 6 -0.138255 28.045066 5.715401 8.936889
271 3 25 0.125927 27.577395 6.074114 8.029791
272 3 6 -0.052124 28.343990 4.356367 9.093309
273 3 79 1.076745 27.967137 3.174780 7.797086
274 3 6 -0.138255 28.946849 3.911507 10.272954
275 3 25 0.125927 29.181587 2.862827 10.402355
276 3 6 -0.142215 29.253724 4.816247 11.291367
277 3 25 0.122111 29.723832 4.447383 12.194086
278 3 61 -0.647047 27.449247 4.010876 6.389357
279 3 61 -0.647047 29.386736 2.275665 7.454340
280 3 61 -0.647047 26.731600 2.125050 8.354628
281 3 5 -0.099102 28.078197 7.890126 12.847481
282 3 26 0.032456 28.474864 8.563297 13.639711
283 3 26 0.032456 27.609672 8.541685 12.079164
284 3 5 0.015778 27.000219 6.993856 13.525295
285 3 26 0.022425 27.523888 6.349238 14.266355
286 3 6 -0.035969 26.268236 6.141263 12.502957
287 3 6 -0.131756 25.523171 6.739423 11.468024
288 3 25 0.101496 25.470680 7.815791 11.374389
289 3 6 -0.139767 24.822002 5.953004 10.553512
290 3 25 0.14135 24.244679 6.430646 9.772473
291 3 6 -0.051918 24.853298 4.560118 10.653542
292 3 79 1.157597 23.912411 3.577568 9.485967
293 3 6 -0.139767 25.603065 3.953145 11.668579
294 3 25 0.14135 25.636349 2.875712 11.758091
295 3 6 -0.131756 26.307279 4.738120 12.587423
296 3 25 0.101496 26.871693 4.251105 13.372654
297 3 61 -0.691163 24.444036 3.965424 7.900760
298 3 61 -0.691163 24.156494 1.907948 9.804415
299 3 61 -0.691163 22.252183 3.968232 9.675131
300 3 5 -0.000586 26.008606 7.892620 14.332676
301 3 26 -0.010501 26.626511 8.521592 15.011158
302 3 26 -0.010501 25.474154 8.586097 13.648857
303 3 5 -0.032579 24.985953 7.148955 15.244138
304 3 26 0.137701 25.572506 6.508425 15.939515
305 3 6 -0.011695 24.026353 6.265597 14.432906
306 3 6 -0.095646 23.147256 6.816028 13.480043
307 3 25 0.111209 23.177320 7.874153 13.255732
308 3 6 -0.184492 22.161738 6.023197 12.871167
309 3 25 0.122822 21.457405 6.495032 12.198032
310 3 6 -0.022823 22.021905 4.663923 13.209782
311 3 5 0.164417 20.818510 3.863763 12.715221
312 3 6 -0.184492 22.971192 4.086667 14.070571
313 3 25 0.122822 22.901357 3.039329 14.334733
314 3 6 -0.095646 23.961518 4.878140 14.675248
315 3 25 0.111209 24.632114 4.416839 15.389053
316 3 26 -0.040461 21.194771 2.991319 12.139708
317 3 5 -0.072194 19.857799 3.347357 13.853203
318 3 26 0.004392 20.425795 2.652054 14.506532
319 3 26 0.004392 19.058685 2.748372 13.365988
320 3 5 0.060914 24.217595 8.205434 16.151370
321 3 26 -0.029666 24.979139 8.811832 16.688361
322 3 26 -0.029666 23.660498 8.903841 15.491291
323 3 5 -0.080441 23.246876 7.636482 17.253626
324 3 26 0.161633 23.857580 7.005860 17.937688
325 3 6 -0.033909 22.188213 6.814984 16.600946
326 3 6 -0.046469 21.289125 7.405409 15.694122
327 3 25 0.119472 21.346917 8.457799 15.450041
328 3 6 -0.154837 20.306391 6.638016 15.091096
329 3 25 0.088671 19.624445 7.107143 14.392738
330 3 6 -0.050237 20.211474 5.274254 15.387926
331 3 5 0.18978 19.158702 4.450963 14.726665
332 3 6 -0.154837 21.107744 4.684769 16.298298
333 3 25 0.088671 21.050469 3.632222 16.541627
334 3 6 -0.046469 22.090733 5.452155 16.901101
335 3 25 0.119472 22.773431 4.983066 17.598721
336 3 26 -0.043781 18.551073 5.081206 14.039347
337 3 5 -0.103886 18.185592 3.884781 15.821814
338 3 26 0.015134 18.736139 3.187847 16.489099
339 3 26 0.015134 17.419965 3.281298 15.287002
340 3 5 0.02372 22.548420 8.738748 18.132103
341 3 26 -0.032673 23.349255 9.335416 18.619351
342 3 26 -0.032673 21.981393 9.436914 17.480951
343 3 5 -0.070608 21.584613 8.224542 19.271720
344 3 26 0.047784 22.190687 7.598328 19.961514
345 3 6 -0.002343 20.371640 7.432187 18.781604
346 3 6 -0.14064 19.423691 8.014373 17.921874
347 3 25 0.145001 19.500485 9.060821 17.655459
348 3 6 -0.235918 18.430299 7.227032 17.314759
349 3 25 0.13736 17.768758 7.691191 16.594196
350 3 6 -0.03349 18.363742 5.838584 17.550886
351 3 5 0.334804 17.427779 4.955371 16.710017
352 3 6 -0.235918 19.229990 5.286099 18.514696
353 3 25 0.13736 19.199108 4.227394 18.736389
354 3 6 -0.14064 20.219795 6.074612 19.124382
355 3 25 0.145001 20.921204 5.599021 19.798158
356 3 26 -0.102684 16.850559 5.601221 16.011704
357 3 5 -0.093356 16.409613 4.258955 17.620371
358 3 26 -0.000797 15.837238 5.014159 18.200270
359 3 26 -0.000797 15.689353 3.672965 17.010394
360 3 26 -0.000556 33.746773 8.450022 10.964974
361 3 26 -0.040461 20.210200 4.485606 12.023375
362 3 26 0.047784 21.215616 9.098496 19.849880
363 3 26 -0.000797 16.912688 3.567282 18.328424
364 4 5 -0.051233 26.324783 28.206768 34.818337
365 4 26 -0.000556 27.434442 28.162661 34.839671
366 4 26 -0.000556 25.930139 27.262147 35.249523
367 4 5 0.030247 25.824281 28.416673 33.380174
368 4 26 0.028561 26.291215 29.359510 33.017115
369 4 6 0.077933 24.311935 28.570943 33.406591
370 4 6 -0.200132 23.477859 27.522657 33.841974
371 4 25 0.120991 23.897802 26.573545 34.147593
372 4 6 -0.123165 22.091559 27.693623 33.893521
373 4 25 0.137797 21.465648 26.879564 34.236281
374 4 6 -0.043312 21.516734 28.911260 33.515992
375 4 79 1.139467 19.738118 29.126354 33.623533
376 4 6 -0.123165 22.336181 29.957296 33.076893
377 4 25 0.137797 21.905402 30.905968 32.785002
378 4 6 -0.200132 23.723217 29.789282 33.022304
379 4 25 0.120991 24.337736 30.615722 32.688249
380 4 61 -0.686299 19.316686 29.264852 35.281491
381 4 61 -0.686299 19.278056 30.551082 32.782360
382 4 61 -0.686299 18.975841 27.759067 32.919517
383 4 5 -0.167947 26.334114 27.263401 32.474396
384 4 26 0.053829 27.433782 27.208741 32.636923
385 4 26 0.053829 25.909457 26.291855 32.807548
386 4 5 0.061335 26.123480 27.456409 30.945827
387 4 26 0.066322 26.594899 28.427140 30.672154
388 4 6 0.022005 24.648614 27.490935 30.585929
389 4 6 -0.142215 23.809167 26.386174 30.823473
390 4 25 0.122111 24.204024 25.480045 31.263801
391 4 6 -0.138255 22.450885 26.445059 30.495085
392 4 25 0.125927 21.822375 25.585641 30.686377
393 4 6 -0.052124 21.913238 27.607057 29.928082
394 4 79 1.076745 20.171834 27.707219 29.508748
395 4 6 -0.138255 22.741240 28.706681 29.686953
396 4 25 0.125927 22.334127 29.608987 29.249141
397 4 6 -0.142215 24.098167 28.650916 30.011808
398 4 25 0.122111 24.717923 29.517245 29.818569
399 4 61 -0.647047 19.354362 26.322662 30.111831
400 4 61 -0.647047 19.523748 29.125915 30.221790
401 4 61 -0.647047 20.022789 27.790787 27.802835
402 4 5 -0.099102 26.913825 26.349983 30.184615
403 4 26 0.032456 27.965377 26.430972 30.539312
404 4 26 0.032456 26.553627 25.341156 30.479371
405 4 5 0.015778 26.957749 26.475432 28.633131
406 4 26 0.022425 27.302195 27.506492 28.393958
407 4 6 -0.035969 25.592787 26.215443 28.018989
408 4 6 -0.131756 24.956550 24.969164 28.180221
409 4 25 0.101496 25.421853 24.180346 28.755852
410 4 6 -0.139767 23.720014 24.722039 27.583285
411 4 25 0.14135 23.252140 23.754021 27.707789
412 4 6 -0.051918 23.097077 25.711486 26.819046
413 4 79 1.157597 21.525971 25.351529 26.034213
414 4 6 -0.139767 23.712115 26.959939 26.664257
415 4 25 0.14135 23.241323 27.735432 26.075235
416 4 6 -0.131756 24.951850 27.211521 27.261032
417 4 25 0.101496 25.417581 28.178781 27.120192
418 4 61 -0.691163 20.404901 24.896632 27.251673
419 4 61 -0.691163 20.964583 26.741478 25.196658
420 4 61 -0.691163 21.765243 24.063094 24.926312
421 4 5 -0.000586 28.035246 25.497761 28.062081
422 4 26 -0.010501 28.983067 25.714781 28.602719
423 4 26 -0.010501 27.763988 24.446480 28.297417
424 4 5 -0.032579 28.361319 25.637383 26.544253
425 4 26 0.137701 28.673339 26.691352 26.372026
426 4 6 -0.011695 27.144770 25.320883 25.661593
427 4 6 -0.095646 26.544622 24.046700 25.665037
428 4 25 0.111209 26.894729 23.279531 26.343068
429 4 6 -0.184492 25.545746 23.721883 24.733750
430 4 25 0.122822 25.158008 22.711315 24.718339
431 4 6 -0.022823 25.131782 24.658188 23.767413
432 4 5 0.164417 24.211071 24.234316 22.624771
433 4 6 -0.184492 25.644518 25.964901 23.837622
434 4 25 0.122822 25.331133 26.712369 23.120227
435 4 6 -0.095646 26.639458 26.292348 24.773400
436 4 25 0.111209 27.064933 27.287633 24.753521
437 4 26 -0.040461 23.300376 24.869449 22.659204
438 4 5 -0.072194 24.851775 24.339925 21.188461
439 4 26 0.004392 25.098447 25.404015 20.989037
440 4 26 0.004392 24.069796 24.049328 20.454426
441 4 5 0.060914 29.621297 24.734910 26.187055
442 4 26 -0.029666 30.446942 25.012923 26.877741
443 4 26 -0.029666 29.371228 23.673584 26.398921
444 4 5 -0.080441 30.203835 24.856932 24.728724
445 4 26 0.161633 30.512996 25.916246 24.584295
446 4 6 -0.033909 29.147412 24.488237 23.744015
447 4 6 -0.046469 28.605652 23.189882 23.736258
448 4 25 0.119472 28.937935 22.438001 24.439610
449 4 6 -0.154837 27.624976 22.851835 22.818490
450 4 25 0.088671 27.215894 21.849143 22.828122
451 4 6 -0.050237 27.176228 23.806332 21.899510
452 4 5 0.18978 26.111971 23.439765 20.921557
453 4 6 -0.154837 27.721301 25.103421 21.904293
454 4 25 0.088671 27.388332 25.855491 21.201534
455 4 6 -0.046469 28.701801 25.441564 22.822333
456 4 25 0.119472 29.110325 26.444473 22.813571
457 4 26 -0.043781 25.800054 22.381611 21.069341
458 4 5 -0.103886 26.689658 23.555919 19.465658
459 4 26 0.015134 26.946171 24.614425 19.246898
460 4 26 0.015134 25.867068 23.274014 18.772639
461 4 5 0.02372 31.467692 23.959817 24.459651
462 4 26 -0.032673 32.248644 24.253109 25.193716
463 4 26 -0.032673 31.224417 22.895190 24.660503
464 4 5 -0.070608 32.110691 24.062475 23.021572
465 4 26 0.047784 32.426673 25.117755 22.873835
466 4 6 -0.002343 31.197067 23.628597 21.874234
467 4 6 -0.14064 30.687854 22.319819 21.807272
468 4 25 0.145001 30.999366 21.576748 22.530276
469 4 6 -0.235918 29.692708 21.986747 20.872355
470 4 25 0.13736 29.263568 20.993177 20.903164
471 4 6 -0.03349 29.181438 22.955612 19.984730
472 4 5 0.334804 27.941311 22.644379 19.131282
473 4 6 -0.235918 29.788971 24.226485 19.966330
474 4 25 0.13736 29.436265 24.992607 19.288382
475 4 6 -0.14064 30.786653 24.557295 20.898199
476 4 25 0.145001 31.172808 25.568681 20.909149
477 4 26 -0.102684 27.630178 21.591966 19.314501
478 4 5 -0.093356 28.290881 22.754868 17.642661
479 4 26 -0.000797 29.131060 22.070998 17.396387
480 4 26 -0.000797 27.416159 22.465247 17.022007
481 4 26 -0.000556 26.003943 29.054078 35.461930
482 4 26 -0.040461 23.890936 23.179795 22.769270
483 4 26 0.047784 33.024961 23.432012 22.992381
484 4 26 -0.000797 28.581514 23.792634 17.375435
485 5 5 -0.051233 10.088265 39.210893 31.178597
486 5 26 -0.000556 10.475075 39.295784 30.140851
487 5 26 -0.000556 10.929147 39.396938 31.880224
488 5 5 0.030247 9.466238 37.823879 31.406954
489 5 26 0.028561 8.662172 37.708562 30.646059
490 5 6 0.077933 8.861770 37.782868 32.801452
491 5 6 -0.200132 9.664810 37.921009 33.950447
492 5 25 0.120991 10.736909 38.038030 33.863966
493 5 6 -0.123165 9.088340 37.916507 35.223779
494 5 25 0.137797 9.719544 38.029766 36.095957
495 5 6 -0.043312 7.704570 37.778146 35.370849
496 5 79 1.139467 6.976766 37.811739 37.011116
497 5 6 -0.123165 6.898420 37.634922 34.235902
498 5 25 0.137797 5.825994 37.530444 34.334574
499 5 6 -0.200132 7.471789 37.637160 32.960630
500 5 25 0.120991 6.827182 37.534334 32.096838
501 5 61 -0.686299 7.031697 39.427856 37.586232
502 5 61 -0.686299 5.347478 37.275199 36.929718
503 5 61 -0.686299 7.883684 36.775605 38.035863
504 5 5 -0.167947 10.527078 36.722966 31.136754
505 5 26 0.053829 10.947375 36.942303 30.129821
506 5 26 0.053829 11.365268 36.805684 31.861889
507 5 5 0.061335 9.992938 35.263528 31.083131
508 5 26 0.066322 9.181164 35.241636 30.321558
509 5 6 0.022005 9.438538 34.822708 32.426361
510 5 6 -0.142215 10.255136 34.755529 33.571023
511 5 25 0.122111 11.304931 35.011436 33.513472
512 5 6 -0.138255 9.719882 34.358482 34.800695
513 5 25 0.125927 10.363910 34.314180 35.668730
514 5 6 -0.052124 8.363573 34.025956 34.903894
515 5 79 1.076745 7.654663 33.523967 36.473547
516 5 6 -0.138255 7.547564 34.087756 33.771104
517 5 25 0.125927 6.498036 33.832644 33.841711
518 5 6 -0.142215 8.078822 34.481961 32.541364
519 5 25 0.122111 7.425288 34.525302 31.679403
520 5 61 -0.647047 8.808098 33.752611 37.725057
521 5 61 -0.647047 6.267291 34.486361 36.773783
522 5 61 -0.647047 7.207960 31.871983 36.369902
523 5 5 -0.099102 11.123828 34.332270 30.551988
524 5 26 0.032456 11.439204 34.765233 29.576687
525 5 26 0.032456 12.009357 34.373717 31.221671
526 5 5 0.015778 10.726717 32.852627 30.273190
527 5 26 0.022425 9.826128 32.869114 29.619278
528 5 6 -0.035969 10.432639 32.106992 31.563706
529 5 6 -0.131756 11.429309 31.947982 32.546239
530 5 25 0.101496 12.417022 32.366025 32.405687
531 5 6 -0.139767 11.166033 31.230461 33.713403
532 5 25 0.14135 11.948135 31.107994 34.451499
533 5 6 -0.051918 9.907021 30.662403 33.921522
534 5 79 1.157597 9.610377 29.714970 35.414264
535 5 6 -0.139767 8.903016 30.826752 32.959321
536 5 25 0.14135 7.923503 30.392383 33.107172
537 5 6 -0.131756 9.163091 31.545308 31.787819
538 5 25 0.101496 8.377944 31.651565 31.049858
539 5 61 -0.691163 9.919808 30.725520 36.766661
540 5 61 -0.691163 7.983006 29.167576 35.439486
541 5 61 -0.691163 10.675685 28.369653 35.413457
542 5 5 -0.000586 11.861958 32.153827 29.457196
543 5 26 -0.010501 12.053756 32.790738 28.565395
544 5 26 -0.010501 12.803207 32.134034 30.046953
545 5 5 -0.032579 11.544871 30.728821 28.910905
546 5 26 0.137701 10.625609 30.813342 28.289869
547 5 6 -0.011695 11.298353 29.719294 30.041983
548 5 6 -0.095646 12.302286 29.402979 30.977822
549 5 25 0.111209 13.253728 29.917781 30.953660
550 5 6 -0.184492 12.121337 28.358774 31.898392
551 5 25 0.122822 12.941301 28.096112 32.554510
552 5 6 -0.022823 10.937959 27.596241 31.897236
553 5 5 0.164417 10.833430 26.329769 32.744661
554 5 6 -0.184492 9.890723 27.985572 31.044566
555 5 25 0.122822 8.961505 27.430572 31.034430
556 5 6 -0.095646 10.068858 29.034464 30.127560
557 5 25 0.111209 9.268083 29.261931 29.435437
558 5 26 -0.040461 9.967358 26.442153 33.431127
559 5 5 -0.072194 10.660356 24.997567 31.920086
560 5 26 0.004392 9.706391 25.053491 31.354641
561 5 26 0.004392 10.551614 24.167294 32.650543
562 5 5 0.060914 12.706657 30.266817 27.927849
563 5 26 -0.029666 12.832370 31.055040 27.153944
564 5 26 -0.029666 13.659354 30.223385 28.497338
565 5 5 -0.080441 12.496202 28.912917 27.150913
566 5 26 0.161633 11.576339 29.025477 26.534659
567 5 6 -0.033909 12.328336 27.803253 28.131772
568 5 6 -0.046469 13.370664 27.474612 29.017684
569 5 25 0.119472 14.307157 28.016232 29.009332
570 5 6 -0.154837 13.210212 26.441873 29.926530
571 5 25 0.088671 14.021003 26.203894 30.603891
572 5 6 -0.050237 12.008127 25.727113 29.959303
573 5 5 0.18978 11.837143 24.623972 30.947862
574 5 6 -0.154837 10.967437 26.052801 29.070225
575 5 25 0.088671 10.030669 25.511755 29.079252
576 5 6 -0.046469 11.127796 27.085817 28.161554
577 5 25 0.119472 10.316797 27.324651 27.484773
578 5 26 -0.043781 12.755712 24.514748 31.566834
579 5 5 -0.103886 11.631128 23.270827 30.177530
580 5 26 0.015134 10.681739 23.307359 29.601842
581 5 26 0.015134 11.509541 22.479683 30.949351
582 5 5 0.02372 13.670868 28.538122 26.174060
583 5 26 -0.032673 13.776786 29.368948 25.443808
584 5 26 -0.032673 14.626650 28.483696 26.736620
585 5 5 -0.070608 13.500918 27.203703 25.347924
586 5 26 0.047784 12.586290 27.312612 24.725926
587 5 6 -0.002343 13.407011 25.930935 26.190888
588 5 6 -0.14064 14.457871 25.544545 27.041227
589 5 25 0.145001 15.383475 26.105845 27.052606
590 5 6 -0.235918 14.285080 24.495243 27.960155
591 5 25 0.13736 15.085197 24.278547 28.656680
592 5 6 -0.03349 13.056284 23.809998 28.052207
593 5 5 0.334804 12.803125 22.828493 29.207937
594 5 6 -0.235918 12.054879 24.111521 27.108370
595 5 25 0.13736 11.103629 23.596396 27.135311
596 5 6 -0.14064 12.229983 25.157529 26.187289
597 5 25 0.145001 11.407924 25.415923 25.531860
598 5 26 -0.102684 13.723288 22.755072 29.829109
599 5 5 -0.093356 12.525964 21.427082 28.651494
600 5 26 -0.000797 13.375671 21.093115 28.018489
601 5 26 -0.000797 12.409220 20.701211 29.484388
602 5 26 -0.000556 9.321267 40.002010 31.323277
603 5 26 -0.040461 11.745458 26.217599 33.369963
604 5 26 0.047784 14.364727 27.097684 24.657405
605 5 26 -0.000797 11.597245 21.414156 28.043095
606 6 5 -0.051233 3.089368 18.419288 0.842761
607 6 26 -0.000556 3.429586 17.376310 0.668999
608 6 26 -0.000556 3.447985 19.047792 -0.000063
609 6 5 0.030247 3.616796 18.937617 2.190363
610 6 26 0.028561 3.240923 18.235921 2.968260
611 6 6 0.077933 3.049130 20.326570 2.435830
612 6 6 -0.200132 3.358206 21.403735 1.582406
613 6 25 0.120991 4.026935 21.268589 0.742699