LAMMPS Description

5727  atoms
4572  bonds
5346  angles
6480  dihedrals
1188  impropers

87  atom types
840  bond types
4614  angle types
985  dihedral types
38  improper types

-0.5 40.5 xlo xhi
-0.5 40.5 ylo yhi
-0.5 40.5 zlo zhi

Masses

1 12.01
2 12.01
3 12.01
4 12.01
5 12.01
6 12.01
7 12.01
8 12.01
9 12.01
10 12.01
11 12.01
12 12.01
13 12.01
14 12.01
15 12.01
16 12.01
17 12.01
18 12.01
19 12.01
20 1.008
21 1.008
22 1.008
23 1.008
24 1.008
25 1.008
26 1.008
27 1.008
28 1.008
29 1.008
30 1.008
31 1.008
32 1.008
33 19.00
34 35.45
35 79.90
36 126.9
37 14.01
38 14.01
39 14.01
40 14.01
41 14.01
42 14.01
43 14.01
44 14.01
45 14.01
46 14.01
47 14.01
48 14.01
49 14.01
50 14.01
51 14.01
52 14.01
53 14.01
54 14.01
55 14.01
56 14.01
57 14.01
58 14.01
59 14.01
60 14.01
61 16.00
62 16.00
63 16.00
64 16.00
65 30.97
66 30.97
67 30.97
68 30.97
69 30.97
70 30.97
71 30.97
72 30.97
73 30.97
74 30.97
75 30.97
76 32.06
77 32.06
78 32.06
79 32.06
80 32.06
81 32.06
82 32.06
83 32.06
84 24.305
85 40.08
86 19.02
87 35.45

Atoms

1 1 5 -0.051233 14.876564 19.110155 13.525616
2 1 26 -0.000556 14.236317 18.473439 12.878761
3 1 26 -0.000556 14.718293 18.804275 14.581723
4 1 5 0.030247 14.539671 20.595427 13.317417
5 1 26 0.028561 14.691850 20.805671 12.235095
6 1 6 0.077933 15.501648 21.435162 14.142724
7 1 6 -0.200132 15.525890 21.349055 15.548478
8 1 25 0.120991 14.841602 20.695874 16.073523
9 1 6 -0.123165 16.440936 22.101928 16.289821
10 1 25 0.137797 16.449957 22.019257 17.369183
11 1 6 -0.043312 17.346697 22.947925 15.642149
12 1 79 1.139467 18.539634 23.879358 16.606845
13 1 6 -0.123165 17.327283 23.044707 14.246173
14 1 25 0.137797 18.024556 23.692597 13.731589
15 1 6 -0.200132 16.412124 22.294444 13.501412
16 1 25 0.120991 16.421991 22.378556 12.422034
17 1 61 -0.686299 19.732575 22.786442 17.179593
18 1 61 -0.686299 19.271097 25.077477 15.617628
19 1 61 -0.686299 17.722902 24.623553 17.920352
20 1 5 -0.167947 13.040190 20.842142 13.635362
21 1 26 0.053829 12.472668 20.094013 13.037956
22 1 26 0.053829 12.830220 20.627733 14.705487
23 1 5 0.061335 12.482386 22.238279 13.238125
24 1 26 0.066322 12.696696 22.378335 12.154655
25 1 6 0.022005 13.144425 23.350181 14.032684
26 1 6 -0.142215 13.031966 23.417872 15.434243
27 1 25 0.122111 12.459803 22.676629 15.976513
28 1 6 -0.138255 13.660639 24.444324 16.146566
29 1 25 0.125927 13.562790 24.478184 17.223366
30 1 6 -0.052124 14.410718 25.414020 15.469905
31 1 79 1.076745 15.233406 26.733121 16.365178
32 1 6 -0.138255 14.524434 25.354616 14.078344
33 1 25 0.125927 15.102347 26.099865 13.547122
34 1 6 -0.142215 13.896675 24.332356 13.363645
35 1 25 0.122111 14.002850 24.306164 12.286610
36 1 61 -0.647047 15.120524 26.440018 18.053466
37 1 61 -0.647047 16.879813 26.767903 15.886348
38 1 61 -0.647047 14.478072 28.219826 15.967037
39 1 5 -0.099102 10.931052 22.221256 13.384215
40 1 26 0.032456 10.578051 21.367838 12.763571
41 1 26 0.032456 10.640897 21.995815 14.432710
42 1 5 0.015778 10.175004 23.483511 12.874441
43 1 26 0.022425 10.517340 23.676411 11.833034
44 1 6 -0.035969 10.453513 24.688275 13.756974
45 1 6 -0.131756 10.096298 24.680387 15.119450
46 1 25 0.101496 9.630567 23.811513 15.564694
47 1 6 -0.139767 10.319938 25.802732 15.917417
48 1 25 0.14135 10.027324 25.782706 16.959263
49 1 6 -0.051918 10.904105 26.948611 15.372600
50 1 79 1.157597 11.144985 28.387742 16.414131
51 1 6 -0.139767 11.277989 26.963326 14.023207
52 1 25 0.14135 11.731255 27.843704 13.587929
53 1 6 -0.131756 11.055326 25.840162 13.219902
54 1 25 0.101496 11.340109 25.874535 12.175847
55 1 61 -0.691163 12.119963 27.930898 17.750786
56 1 61 -0.691163 11.912948 29.632398 15.514309
57 1 61 -0.691163 9.605043 28.923499 16.949203
58 1 5 -0.000586 8.644450 23.176881 12.794939
59 1 26 -0.010501 8.534186 22.253954 12.183548
60 1 26 -0.010501 8.246046 22.943104 13.805275
61 1 5 -0.032579 7.756653 24.258875 12.108844
62 1 26 0.137701 8.166911 24.419287 11.087165
63 1 6 -0.011695 7.775098 25.590275 12.874536
64 1 6 -0.095646 7.297171 25.685931 14.195963
65 1 25 0.111209 6.963584 24.801063 14.721869
66 1 6 -0.184492 7.162605 26.935505 14.821272
67 1 25 0.122822 6.724508 26.977533 15.810276
68 1 6 -0.022823 7.489613 28.121177 14.136373
69 1 5 0.164417 7.137071 29.481780 14.734271
70 1 6 -0.184492 8.076017 28.019617 12.863132
71 1 25 0.122822 8.355757 28.912726 12.319371
72 1 6 -0.095646 8.216829 26.769033 12.239419
73 1 25 0.111209 8.605473 26.732173 11.229659
74 1 26 -0.040461 8.073612 30.071155 14.831603
75 1 5 -0.072194 6.093442 30.317856 13.899731
76 1 26 0.004392 6.532654 30.538263 12.904031
77 1 26 0.004392 5.962222 31.293527 14.415088
78 1 5 0.060914 6.283723 23.691248 11.914247
79 1 26 -0.029666 6.359675 22.724534 11.370442
80 1 26 -0.029666 5.854702 23.463082 12.913104
81 1 5 -0.080441 5.271757 24.580292 11.097857
82 1 26 0.161633 5.701591 24.720614 10.080931
83 1 6 -0.033909 5.113429 25.897083 11.778012
84 1 6 -0.046469 4.581358 25.965292 13.078604
85 1 25 0.119472 4.280830 25.072406 13.610466
86 1 6 -0.154837 4.435166 27.191418 13.705931
87 1 25 0.088671 4.027206 27.226244 14.708522
88 1 6 -0.050237 4.818147 28.360999 13.040822
89 1 5 0.18978 4.669118 29.676991 13.725921
90 1 6 -0.154837 5.345990 28.293157 11.738382
91 1 25 0.088671 5.647334 29.185972 11.206952
92 1 6 -0.046469 5.492486 27.066922 11.111160
93 1 25 0.119472 5.901352 27.031735 10.108970
94 1 26 -0.043781 4.243330 29.535666 14.744526
95 1 5 -0.103886 3.657386 30.565658 12.917512
96 1 26 0.015134 4.077374 30.795375 11.915050
97 1 26 0.015134 3.576004 31.531880 13.461747
98 1 5 0.02372 3.846193 23.939732 10.918973
99 1 26 -0.032673 3.979734 22.965093 10.402248
100 1 26 -0.032673 3.405476 23.716192 11.913335
101 1 5 -0.070608 2.798458 24.775446 10.084772
102 1 26 0.047784 3.220145 24.913970 9.065813
103 1 6 -0.002343 2.433065 26.134146 10.684578
104 1 6 -0.14064 1.845058 26.230745 11.957998
105 1 25 0.145001 1.572124 25.334901 12.501044
106 1 6 -0.235918 1.701207 27.479717 12.586248
107 1 25 0.13736 1.321439 27.510006 13.599732
108 1 6 -0.03349 2.144914 28.660821 11.956890
109 1 5 0.334804 2.195260 29.982377 12.740540
110 1 6 -0.235918 2.608747 28.572674 10.629621
111 1 25 0.13736 2.943165 29.458716 10.106121
112 1 6 -0.14064 2.748130 27.324376 10.000726
113 1 25 0.145001 3.185306 27.287001 9.010971
114 1 26 -0.102684 1.791254 29.812807 13.763266
115 1 5 -0.093356 1.290878 31.022331 12.068983
116 1 26 -0.000797 0.251851 30.635457 11.998396
117 1 26 -0.000797 1.271688 31.956929 12.669308
118 1 26 -0.000556 15.936608 18.917114 13.253358
119 1 26 -0.040461 6.716508 29.348320 15.754416
120 1 26 0.047784 1.865646 24.180685 9.983066
121 1 26 -0.000797 1.653052 31.268945 11.048765
122 2 5 -0.051233 3.844958 9.799265 19.911933
123 2 26 -0.000556 4.029571 10.101207 18.859082
124 2 26 -0.000556 3.043172 10.447751 20.324946
125 2 5 0.030247 5.136973 9.913929 20.736811
126 2 26 0.028561 5.890002 9.264191 20.237243
127 2 6 0.077933 4.867257 9.398903 22.141691
128 2 6 -0.200132 3.938642 10.035906 22.987886
129 2 25 0.120991 3.411508 10.922438 22.661143
130 2 6 -0.123165 3.676636 9.528357 24.263607
131 2 25 0.137797 2.955553 10.026895 24.898774
132 2 6 -0.043312 4.332432 8.377964 24.713185
133 2 79 1.139467 3.956853 7.718353 26.339579
134 2 6 -0.123165 5.260776 7.740621 23.882242
135 2 25 0.137797 5.773032 6.847786 24.215694
136 2 6 -0.200132 5.526742 8.246529 22.606156
137 2 25 0.120991 6.241900 7.731213 21.977486
138 2 61 -0.686299 2.402213 6.994047 26.275636
139 2 61 -0.686299 5.132290 6.542758 26.770162
140 2 61 -0.686299 3.975696 9.007289 27.472924
141 2 5 -0.167947 5.666803 11.372189 20.680619
142 2 26 0.053829 5.716372 11.639330 19.601336
143 2 26 0.053829 4.939559 12.067558 21.152639
144 2 5 0.061335 7.093134 11.599333 21.256921
145 2 26 0.066322 7.774834 10.898243 20.724749
146 2 6 0.022005 7.143224 11.319214 22.748555
147 2 6 -0.142215 6.375215 12.066116 23.661734
148 2 25 0.122111 5.734614 12.866703 23.315958
149 2 6 -0.138255 6.427961 11.782210 25.030256
150 2 25 0.125927 5.829401 12.367213 25.715613
151 2 6 -0.052124 7.245404 10.748708 25.504025
152 2 79 1.076745 7.320068 10.361442 27.254114
153 2 6 -0.138255 8.012648 10.004861 24.603508
154 2 25 0.125927 8.647189 9.204098 24.960877
155 2 6 -0.142215 7.963956 10.286612 23.236710
156 2 25 0.122111 8.564973 9.693699 22.559070
157 2 61 -0.647047 6.124087 11.262937 28.094295
158 2 61 -0.647047 7.031844 8.682252 27.450049
159 2 61 -0.647047 8.883046 10.757428 27.836894
160 2 5 -0.099102 7.562258 13.038831 20.888090
161 2 26 0.032456 7.473376 13.111752 19.781332
162 2 26 0.032456 6.869987 13.795630 21.315139
163 2 5 0.015778 9.036448 13.396585 21.239582
164 2 26 0.022425 9.682397 12.598869 20.809083
165 2 6 -0.035969 9.238844 13.490817 22.742260
166 2 6 -0.131756 8.531746 14.440181 23.505626
167 2 25 0.101496 7.821885 15.109044 23.037854
168 2 6 -0.139767 8.748253 14.548366 24.879615
169 2 25 0.14135 8.204904 15.292323 25.447739
170 2 6 -0.051918 9.669566 13.712505 25.514937
171 2 79 1.157597 9.952844 13.900285 27.275164
172 2 6 -0.139767 10.367321 12.754098 24.769644
173 2 25 0.14135 11.083735 12.100214 25.248359
174 2 6 -0.131756 10.153145 12.642617 23.391936
175 2 25 0.101496 10.710778 11.903718 22.830325
176 2 61 -0.691163 8.457110 13.686711 28.089476
177 2 61 -0.691163 11.092825 12.731293 27.806686
178 2 61 -0.691163 10.567377 15.478441 27.551803
179 2 5 -0.000586 9.432883 14.729674 20.526382
180 2 26 -0.010501 9.200388 14.596471 19.446589
181 2 26 -0.010501 8.797894 15.564857 20.891642
182 2 5 -0.032579 10.936971 15.132332 20.598534
183 2 26 0.137701 11.523121 14.285661 20.177289
184 2 6 -0.011695 11.395155 15.394671 22.040927
185 2 6 -0.095646 10.830096 16.425594 22.816581
186 2 25 0.111209 10.011133 17.016128 22.427458
187 2 6 -0.184492 11.373011 16.762614 24.066467
188 2 25 0.122822 10.958941 17.606943 24.602638
189 2 6 -0.022823 12.502392 16.086531 24.565716
190 2 5 0.164417 13.220013 16.596948 25.813715
191 2 6 -0.184492 12.993974 14.982508 23.848214
192 2 25 0.122822 13.849426 14.430770 24.216130
193 2 6 -0.095646 12.447080 14.640770 22.600444
194 2 25 0.111209 12.895642 13.830186 22.040300
195 2 26 -0.040461 13.229219 15.780547 26.566942
196 2 5 -0.072194 14.699802 17.082556 25.570710
197 2 26 0.004392 15.301470 16.218899 25.217164
198 2 26 0.004392 15.116751 17.381410 26.556400
199 2 5 0.060914 11.199673 16.376159 19.642776
200 2 26 -0.029666 10.826712 16.112392 18.629191
201 2 26 -0.029666 10.586891 17.232732 19.995786
202 2 5 -0.080441 12.693846 16.839156 19.458247
203 2 26 0.161633 13.255814 15.978565 19.031444
204 2 6 -0.033909 13.259074 17.218763 20.784155
205 2 6 -0.046469 12.707424 18.289430 21.511234
206 2 25 0.119472 11.867045 18.853991 21.129822
207 2 6 -0.154837 13.236947 18.639022 22.742367
208 2 25 0.088671 12.798443 19.463458 23.290867
209 2 6 -0.050237 14.322374 17.923618 23.259097
210 2 5 0.18978 14.880601 18.297353 24.590302
211 2 6 -0.154837 14.876966 16.855806 22.529868
212 2 25 0.088671 15.716730 16.290729 22.911744
213 2 6 -0.046469 14.347191 16.506002 21.298814
214 2 25 0.119472 14.784862 15.680972 20.750577
215 2 26 -0.043781 14.315417 19.155208 25.018643
216 2 5 -0.103886 16.369544 18.763875 24.410685
217 2 26 0.015134 16.988938 17.913518 24.053847
218 2 26 0.015134 16.743894 19.032668 25.422620
219 2 5 0.02372 12.878416 18.052673 18.474447
220 2 26 -0.032673 12.462173 17.751073 17.489288
221 2 26 -0.032673 12.275924 18.917220 18.824472
222 2 5 -0.070608 14.359254 18.542088 18.230211
223 2 26 0.047784 14.924199 17.687854 17.798462
224 2 6 -0.002343 15.079100 19.064856 19.474349
225 2 6 -0.14064 14.584521 20.170665 20.187973
226 2 25 0.145001 13.725088 20.716217 19.819629
227 2 6 -0.235918 15.128629 20.517291 21.436619
228 2 25 0.13736 14.669922 21.322146 21.997054
229 2 6 -0.03349 16.177951 19.764186 22.002067
230 2 5 0.334804 16.606530 20.007257 23.458222
231 2 6 -0.235918 16.757025 18.742563 21.223919
232 2 25 0.13736 17.575035 18.152345 21.615659
233 2 6 -0.14064 16.215425 18.399547 19.974041
234 2 25 0.145001 16.633555 17.555412 19.440431
235 2 26 -0.102684 16.011023 20.849424 23.875442
236 2 5 -0.093356 18.078366 20.433768 23.504982
237 2 26 -0.000797 18.232403 21.341392 22.883112
238 2 26 -0.000797 18.373400 20.675521 24.548409
239 2 26 -0.000556 3.486375 8.747368 19.907995
240 2 26 -0.040461 12.657478 17.450445 26.250150
241 2 26 0.047784 14.347575 19.353473 17.471434
242 2 26 -0.000797 18.741713 19.625255 23.132003
243 3 5 -0.051233 8.031829 13.451462 37.024952
244 3 26 -0.000556 8.418684 14.463126 36.778733
245 3 26 -0.000556 8.560881 13.087132 37.931231
246 3 5 0.030247 8.234582 12.496490 35.837604
247 3 26 0.028561 7.704462 12.951766 34.971303
248 3 6 0.077933 7.604596 11.154826 36.176340
249 3 6 -0.200132 8.080743 10.373400 37.247228
250 3 25 0.120991 8.923179 10.704011 37.840160
251 3 6 -0.123165 7.467252 9.158899 37.567122
252 3 25 0.137797 7.842249 8.573679 38.397083
253 3 6 -0.043312 6.369355 8.707292 36.828024
254 3 79 1.139467 5.570227 7.163769 37.275498
255 3 6 -0.123165 5.891867 9.473609 35.758791
256 3 25 0.137797 5.041122 9.138154 35.180473
257 3 6 -0.200132 6.504189 10.688163 35.434757
258 3 25 0.120991 6.111485 11.268406 34.609330
259 3 61 -0.686299 4.685462 7.421170 38.723444
260 3 61 -0.686299 4.505492 6.680345 36.017834
261 3 61 -0.686299 6.778578 5.967773 37.511426
262 3 5 -0.167947 9.742723 12.422296 35.476486
263 3 26 0.053829 10.081942 13.475578 35.357332
264 3 26 0.053829 10.322688 11.989400 36.319971
265 3 5 0.061335 10.087615 11.694917 34.146031
266 3 26 0.066322 9.500818 12.192439 33.341300
267 3 6 0.022005 9.720158 10.222641 34.203694
268 3 6 -0.142215 10.318650 9.352782 35.134688
269 3 25 0.122111 11.064612 9.718200 35.828143
270 3 6 -0.138255 9.955576 8.002761 35.177776
271 3 25 0.125927 10.426568 7.350843 35.901230
272 3 6 -0.052124 8.989800 7.504764 34.294557
273 3 79 1.076745 8.502279 5.778891 34.339737
274 3 6 -0.138255 8.393448 8.361958 33.365857
275 3 25 0.125927 7.645908 7.985638 32.679458
276 3 6 -0.142215 8.754719 9.709975 33.318673
277 3 25 0.122111 8.275656 10.354396 32.592599
278 3 61 -0.647047 9.211865 5.016242 35.704955
279 3 61 -0.647047 6.792561 5.701717 34.449526
280 3 61 -0.647047 9.029213 5.022483 32.894217
281 3 5 -0.099102 11.590423 11.938421 33.813547
282 3 26 0.032456 11.723567 13.043116 33.806354
283 3 26 0.032456 12.238021 11.543465 34.625323
284 3 5 0.015778 12.084447 11.422724 32.429797
285 3 26 0.022425 11.391403 11.827905 31.658791
286 3 6 -0.035969 12.104308 9.904463 32.381027
287 3 6 -0.131756 12.919853 9.166669 33.261112
288 3 25 0.101496 13.535340 9.667187 33.996468
289 3 6 -0.139767 12.963304 7.774123 33.187961
290 3 25 0.14135 13.605493 7.224766 33.864176
291 3 6 -0.051918 12.194660 7.094779 32.239914
292 3 79 1.157597 12.299760 5.307590 32.146026
293 3 6 -0.139767 11.367969 7.816030 31.369715
294 3 25 0.14135 10.767360 7.303192 30.630629
295 3 6 -0.131756 11.321740 9.212212 31.439833
296 3 25 0.101496 10.685719 9.753400 30.750685
297 3 61 -0.691163 11.872075 4.659519 33.676720
298 3 61 -0.691163 11.231256 4.727076 30.933625
299 3 61 -0.691163 13.914896 4.887894 31.746087
300 3 5 -0.000586 13.495689 12.021277 32.124728
301 3 26 -0.010501 13.406915 13.124440 32.238316
302 3 26 -0.010501 14.231257 11.677840 32.883113
303 3 5 -0.032579 14.055339 11.777761 30.690464
304 3 26 0.137701 13.306593 12.182320 29.973817
305 3 6 -0.011695 14.273826 10.284918 30.402480
306 3 6 -0.095646 15.185057 9.516389 31.152650
307 3 25 0.111209 15.705876 9.953821 31.994226
308 3 6 -0.184492 15.499181 8.202391 30.771481
309 3 25 0.122822 16.257136 7.666543 31.328431
310 3 6 -0.022823 14.920502 7.628983 29.623364
311 3 5 0.164417 15.425890 6.290217 29.089234
312 3 6 -0.184492 13.925003 8.350948 28.942867
313 3 25 0.122822 13.448017 7.928887 28.067697
314 3 6 -0.095646 13.605627 9.663491 29.327626
315 3 25 0.111209 12.886453 10.217925 28.738214
316 3 26 -0.040461 14.569071 5.584007 29.056459
317 3 5 -0.072194 16.085249 6.357886 27.659091
318 3 26 0.004392 15.317038 6.694524 26.931471
319 3 26 0.004392 16.364551 5.321011 27.373386
320 3 5 0.060914 15.378847 12.635415 30.484674
321 3 26 -0.029666 15.140947 13.693749 30.728315
322 3 26 -0.029666 16.138845 12.300796 31.222419
323 3 5 -0.080441 16.013625 12.644737 29.043169
324 3 26 0.161633 15.248775 13.057974 28.348311
325 3 6 -0.033909 16.367590 11.250724 28.651951
326 3 6 -0.046469 17.322810 10.527018 29.388901
327 3 25 0.119472 17.815027 10.960303 30.249381
328 3 6 -0.154837 17.649132 9.232329 29.020670
329 3 25 0.088671 18.383892 8.687727 29.600643
330 3 6 -0.050237 17.025519 8.648029 27.913121
331 3 5 0.18978 17.372556 7.249763 27.528646
332 3 6 -0.154837 16.073591 9.373426 27.173391
333 3 25 0.088671 15.580764 8.939768 26.313502
334 3 6 -0.046469 15.747025 10.668072 27.541854
335 3 25 0.119472 15.011569 11.212528 26.962660
336 3 26 -0.043781 18.134241 6.835465 28.226512
337 3 5 -0.103886 18.009944 7.254543 26.093177
338 3 26 0.015134 17.257078 7.591974 25.349253
339 3 26 0.015134 18.253086 6.197444 25.848589
340 3 5 0.02372 17.300291 13.539675 28.908529
341 3 26 -0.032673 17.018308 14.576096 29.193269
342 3 26 -0.032673 18.069518 13.206571 29.636738
343 3 5 -0.070608 17.963618 13.608262 27.477672
344 3 26 0.047784 17.205716 14.025779 26.780141
345 3 6 -0.002343 18.481748 12.272457 26.942405
346 3 6 -0.14064 19.478939 11.554551 27.625709
347 3 25 0.145001 19.949379 11.977762 28.504063
348 3 6 -0.235918 19.802800 10.241158 27.244350
349 3 25 0.13736 20.515162 9.687753 27.843162
350 3 6 -0.03349 19.134727 9.614057 26.172717
351 3 5 0.334804 19.329981 8.111520 25.913076
352 3 6 -0.235918 18.234417 10.383169 25.409525
353 3 25 0.13736 17.713640 9.943217 24.569174
354 3 6 -0.14064 17.914490 11.697344 25.788704
355 3 25 0.145001 17.157008 12.230232 25.228001
356 3 26 -0.102684 20.073490 7.712135 26.638080
357 3 5 -0.093356 19.911375 7.895203 24.511082
358 3 26 -0.000797 20.868199 8.449740 24.405222
359 3 26 -0.000797 20.116996 6.816182 24.344759
360 3 26 -0.000556 6.949373 13.546804 37.257939
361 3 26 -0.040461 16.183028 5.867841 29.784735
362 3 26 0.047784 18.815546 14.320497 27.511796
363 3 26 -0.000797 19.205863 8.242063 23.727006
364 4 5 -0.051233 9.708661 23.894846 17.963877
365 4 26 -0.000556 9.878864 24.626287 18.782272
366 4 26 -0.000556 8.831884 24.232679 17.371336
367 4 5 0.030247 9.484807 22.487687 18.540649
368 4 26 0.028561 10.389063 22.244879 19.142436
369 4 6 0.077933 9.355530 21.502590 17.389754
370 4 6 -0.200132 8.298570 21.595677 16.463301
371 4 25 0.120991 7.540887 22.361257 16.565159
372 4 6 -0.123165 8.214577 20.703465 15.390632
373 4 25 0.137797 7.398929 20.792896 14.684473
374 4 6 -0.043312 9.183229 19.708833 15.223264
375 4 79 1.139467 9.080927 18.594984 13.819633
376 4 6 -0.123165 10.234451 19.604488 16.141162
377 4 25 0.137797 10.992844 18.841983 16.022097
378 4 6 -0.200132 10.320700 20.494117 17.216429
379 4 25 0.120991 11.148046 20.400024 17.908437
380 4 61 -0.686299 9.515751 19.471880 12.409813
381 4 61 -0.686299 10.162181 17.280377 14.047183
382 4 61 -0.686299 7.470662 18.013697 13.695815
383 4 5 -0.167947 8.270325 22.504893 19.507674
384 4 26 0.053829 8.461056 23.334039 20.225177
385 4 26 0.053829 7.339675 22.761617 18.957030
386 4 5 0.061335 8.063725 21.221798 20.361561
387 4 26 0.066322 9.016017 21.037457 20.908011
388 4 6 0.022005 7.738237 20.019809 19.492522
389 4 6 -0.142215 6.580832 19.984820 18.692030
390 4 25 0.122111 5.890496 20.818053 18.686597
391 4 6 -0.138255 6.307649 18.872012 17.889991
392 4 25 0.125927 5.413356 18.864972 17.281380
393 4 6 -0.052124 7.186533 17.781995 17.875011
394 4 79 1.076745 6.860239 16.349201 16.845937
395 4 6 -0.138255 8.336066 17.808692 18.669217
396 4 25 0.125927 9.021039 16.970624 18.663740
397 4 6 -0.142215 8.611164 18.917193 19.472609
398 4 25 0.122111 9.509973 18.915247 20.076018
399 4 61 -0.647047 5.523791 16.672242 15.817095
400 4 61 -0.647047 8.258050 16.028042 15.905657
401 4 61 -0.647047 6.519839 15.010791 17.861872
402 4 5 -0.099102 6.979666 21.506200 21.444244
403 4 26 0.032456 7.335156 22.402032 22.000340
404 4 26 0.032456 6.016628 21.787366 20.966899
405 4 5 0.015778 6.750855 20.388033 22.503544
406 4 26 0.022425 7.744967 20.130027 22.932620
407 4 6 -0.035969 6.106152 19.161190 21.881370
408 4 6 -0.131756 4.834022 19.242330 21.282116
409 4 25 0.101496 4.300014 20.182163 21.241620
410 4 6 -0.139767 4.229570 18.105351 20.745142
411 4 25 0.14135 3.246222 18.184524 20.299917
412 4 6 -0.051918 4.882348 16.871424 20.794320
413 4 79 1.157597 4.064378 15.421568 20.128926
414 4 6 -0.139767 6.154075 16.780811 21.373430
415 4 25 0.14135 6.671250 15.831875 21.418489
416 4 6 -0.131756 6.763344 17.918383 21.912966
417 4 25 0.101496 7.741810 17.826401 22.367363
418 4 61 -0.691163 3.700376 15.716035 18.477644
419 4 61 -0.691163 5.094308 14.055641 20.277598
420 4 61 -0.691163 2.623744 15.162902 21.024706
421 4 5 -0.000586 5.887180 20.952169 23.677748
422 4 26 -0.010501 6.395964 21.874882 24.034804
423 4 26 -0.010501 4.886553 21.259795 23.305903
424 4 5 -0.032579 5.732384 20.032641 24.926799
425 4 26 0.137701 6.757713 19.795152 25.287591
426 4 6 -0.011695 4.999695 18.724664 24.592716
427 4 6 -0.095646 3.671369 18.724164 24.124439
428 4 25 0.111209 3.160056 19.657778 23.930090
429 4 6 -0.184492 2.960239 17.521823 23.985783
430 4 25 0.122822 1.919054 17.564376 23.692618
431 4 6 -0.022823 3.554844 16.291606 24.324684
432 4 5 0.164417 2.715110 15.017071 24.383109
433 4 6 -0.184492 4.914839 16.279725 24.679085
434 4 25 0.122822 5.405147 15.347079 24.926763
435 4 6 -0.095646 5.628777 17.482003 24.811852
436 4 25 0.111209 6.654304 17.442665 25.156472
437 4 26 -0.040461 3.159396 14.276541 23.684417
438 4 5 -0.072194 2.605391 14.365241 25.814096
439 4 26 0.004392 3.621915 14.063910 26.143917
440 4 26 0.004392 2.012855 13.431180 25.708388
441 4 5 0.060914 5.023824 20.842979 26.097648
442 4 26 -0.029666 5.602534 21.777454 26.264616
443 4 26 -0.029666 4.012167 21.150232 25.757091
444 4 5 -0.080441 4.913844 20.133694 27.499714
445 4 26 0.161633 5.950136 19.912677 27.840063
446 4 6 -0.033909 4.137764 18.869701 27.352611
447 4 6 -0.046469 2.794690 18.905351 26.935271
448 4 25 0.119472 2.300470 19.841241 26.711002
449 4 6 -0.154837 2.077437 17.728122 26.801187
450 4 25 0.088671 1.045542 17.772717 26.475554
451 4 6 -0.050237 2.693806 16.504324 27.082916
452 4 5 0.18978 1.919849 15.239566 26.925495
453 4 6 -0.154837 4.035606 16.469022 27.504692
454 4 25 0.088671 4.530014 15.533066 27.728056
455 4 6 -0.046469 4.752981 17.646306 27.638464
456 4 25 0.119472 5.785178 17.601916 27.963108
457 4 26 -0.043781 0.884920 15.460890 26.580875
458 4 5 -0.103886 1.803915 14.530683 28.322242
459 4 26 0.015134 2.812498 14.223420 28.672156
460 4 26 0.015134 1.221523 13.597628 28.159060
461 4 5 0.02372 4.231393 21.007885 28.615331
462 4 26 -0.032673 4.826320 21.940520 28.720280
463 4 26 -0.032673 3.215320 21.312550 28.287110
464 4 5 -0.070608 4.118879 20.357120 30.049174
465 4 26 0.047784 5.151832 20.139256 30.396778
466 4 6 -0.002343 3.269833 19.086682 30.115899
467 4 6 -0.14064 1.909271 19.103728 29.761973
468 4 25 0.145001 1.424103 20.037894 29.509237
469 4 6 -0.235918 1.190121 17.903601 29.628414
470 4 25 0.13736 0.168060 17.947920 29.273845
471 4 6 -0.03349 1.815737 16.658340 29.842671
472 4 5 0.334804 1.090388 15.354741 29.471656
473 4 6 -0.235918 3.138842 16.653811 30.326330
474 4 25 0.13736 3.648688 15.718919 30.518661
475 4 6 -0.14064 3.855606 17.854037 30.463779
476 4 25 0.145001 4.896251 17.807050 30.758711
477 4 26 -0.102684 0.069240 15.600188 29.104289
478 4 5 -0.093356 0.918880 14.479604 30.718700
479 4 26 -0.000797 0.366141 15.038480 31.503792
480 4 26 -0.000797 0.336016 13.567521 30.468491
481 4 26 -0.000556 10.605954 23.900613 17.308196
482 4 26 -0.040461 1.681361 15.229764 24.034535
483 4 26 0.047784 3.680926 21.102278 30.747143
484 4 26 -0.000797 1.902885 14.165464 31.125990
485 5 5 -0.051233 15.969662 32.225840 12.818359
486 5 26 -0.000556 15.031840 32.360620 13.398074
487 5 26 -0.000556 16.154652 33.152585 12.234494
488 5 5 0.030247 15.859897 30.998687 11.899163
489 5 26 0.028561 15.642151 30.128402 12.557927
490 5 6 0.077933 17.193886 30.790910 11.199885
491 5 6 -0.200132 17.713631 31.756243 10.315497
492 5 25 0.120991 17.160658 32.660397 10.098020
493 5 6 -0.123165 18.958119 31.565417 9.708414
494 5 25 0.137797 19.345384 32.320189 9.035893
495 5 6 -0.043312 19.703919 30.413121 9.975979
496 5 79 1.139467 21.316466 30.201243 9.216965
497 5 6 -0.123165 19.194118 29.445455 10.849030
498 5 25 0.137797 19.761786 28.550692 11.067893
499 5 6 -0.200132 17.948759 29.632116 11.456744
500 5 25 0.120991 17.578989 28.874283 12.135852
501 5 61 -0.686299 22.412817 31.275686 9.984558
502 5 61 -0.686299 21.843350 28.580228 9.426211
503 5 61 -0.686299 21.188146 30.563654 7.544132
504 5 5 -0.167947 14.653255 31.170647 10.937474
505 5 26 0.053829 13.779326 31.414280 11.582115
506 5 26 0.053829 14.813046 32.042251 10.266655
507 5 5 0.061335 14.256437 29.912735 10.113863
508 5 26 0.066322 14.082031 29.088601 10.841762
509 5 6 0.022005 15.355661 29.509511 9.146875
510 5 6 -0.142215 15.777477 30.369465 8.115301
511 5 25 0.122111 15.316880 31.339967 7.985506
512 5 6 -0.138255 16.800469 29.981823 7.243832
513 5 25 0.125927 17.110755 30.657486 6.458072
514 5 6 -0.052124 17.416417 28.733064 7.392182
515 5 79 1.076745 18.737198 28.220443 6.291676
516 5 6 -0.138255 17.000927 27.873101 8.412346
517 5 25 0.125927 17.471544 26.906053 8.534471
518 5 6 -0.142215 15.978673 28.255939 9.283165
519 5 25 0.122111 15.677312 27.573436 10.067597
520 5 61 -0.647047 19.196879 29.538610 5.291628
521 5 61 -0.647047 20.071011 27.716129 7.244438
522 5 61 -0.647047 18.176497 26.913601 5.334014
523 5 5 -0.099102 12.891106 30.180108 9.411972
524 5 26 0.032456 12.185033 30.466598 10.222844
525 5 26 0.032456 12.967796 31.054512 8.730876
526 5 5 0.015778 12.247617 28.972195 8.669249
527 5 26 0.022425 12.215134 28.121659 9.386512
528 5 6 -0.035969 13.046124 28.594616 7.433244
529 5 6 -0.131756 13.216403 29.512247 6.378274
530 5 25 0.101496 12.793963 30.506404 6.435604
531 5 6 -0.139767 13.918765 29.148677 5.228957
532 5 25 0.14135 14.028636 29.863010 4.423275
533 5 6 -0.051918 14.463948 27.867889 5.112890
534 5 79 1.157597 15.329385 27.418222 3.608654
535 5 6 -0.139767 14.314917 26.951743 6.161381
536 5 25 0.14135 14.731743 25.956536 6.085225
537 5 6 -0.131756 13.611344 27.312407 7.315195
538 5 25 0.101496 13.496166 26.586567 8.110319
539 5 61 -0.691163 16.623099 28.522395 3.378342
540 5 61 -0.691163 15.930804 25.815460 3.743061
541 5 61 -0.691163 14.218397 27.514166 2.304331
542 5 5 -0.000586 10.765477 29.312617 8.308261
543 5 26 -0.010501 10.271467 29.632716 9.252317
544 5 26 -0.010501 10.727918 30.180068 7.615244
545 5 5 -0.032579 9.904147 28.142106 7.744669
546 5 26 0.137701 9.934861 27.321882 8.495775
547 5 6 -0.011695 10.446008 27.620245 6.405528
548 5 6 -0.095646 10.510225 28.445362 5.265882
549 5 25 0.111209 10.234881 29.489765 5.331112
550 5 6 -0.184492 10.846109 27.911392 4.011843
551 5 25 0.122822 10.815361 28.559726 3.145505
552 5 6 -0.022823 11.112804 26.537077 3.863613
553 5 5 0.164417 11.260236 25.923734 2.472541
554 5 6 -0.184492 11.164083 25.736145 5.017392
555 5 25 0.122822 11.385289 24.679595 4.937747
556 5 6 -0.095646 10.834295 26.271260 6.273457
557 5 25 0.111209 10.813288 25.610797 7.130991
558 5 26 -0.040461 12.258968 25.441469 2.410078
559 5 5 -0.072194 10.157174 24.860895 2.100696
560 5 26 0.004392 10.234852 24.008770 2.808336
561 5 26 0.004392 10.405475 24.464084 1.092910
562 5 5 0.060914 8.384452 28.600959 7.646836
563 5 26 -0.029666 8.076979 28.978426 8.646339
564 5 26 -0.029666 8.315795 29.459949 6.945940
565 5 5 -0.080441 7.326671 27.506251 7.242257
566 5 26 0.161633 7.373282 26.702314 8.010435
567 5 6 -0.033909 7.673293 26.958885 5.899923
568 5 6 -0.046469 7.675437 27.797085 4.770008
569 5 25 0.119472 7.430957 28.847981 4.849308
570 5 6 -0.154837 7.997129 27.283429 3.524629
571 5 25 0.088671 7.997517 27.942836 2.665551
572 5 6 -0.050237 8.319161 25.928247 3.395247
573 5 5 0.18978 8.675927 25.383699 2.053759
574 5 6 -0.154837 8.312552 25.089020 4.524505
575 5 25 0.088671 8.557923 24.038371 4.445282
576 5 6 -0.046469 7.991156 25.602794 5.770000
577 5 25 0.119472 7.991675 24.943826 6.629393
578 5 26 -0.043781 8.633437 26.189056 1.286675
579 5 5 -0.103886 7.621206 24.294377 1.644127
580 5 26 0.015134 7.680589 23.432829 2.342912
581 5 26 0.015134 7.923791 23.918122 0.642492
582 5 5 0.02372 5.842496 28.025695 7.198059
583 5 26 -0.032673 5.596003 28.420604 8.207043
584 5 26 -0.032673 5.762379 28.879496 6.492680
585 5 5 -0.070608 4.735744 26.963774 6.824586
586 5 26 0.047784 4.773847 26.160741 7.592032
587 5 6 -0.002343 4.871797 26.354431 5.428328
588 5 6 -0.14064 4.818207 27.159413 4.276888
589 5 25 0.145001 4.602444 28.216877 4.361415
590 5 6 -0.235918 5.146582 26.628751 3.017568
591 5 25 0.13736 5.175837 27.295677 2.165133
592 5 6 -0.03349 5.539207 25.281476 2.880933
593 5 5 0.334804 6.114923 24.775317 1.548451
594 5 6 -0.235918 5.461380 24.448364 4.014256
595 5 25 0.13736 5.738578 23.404527 3.947001
596 5 6 -0.14064 5.128816 24.978564 5.271823
597 5 25 0.145001 5.159306 24.326307 6.135401
598 5 26 -0.102684 6.088608 25.602524 0.804824
599 5 5 -0.093356 5.236023 23.647796 0.994708
600 5 26 -0.000797 4.190859 24.004000 0.872298
601 5 26 -0.000797 5.610017 23.325132 -0.000403
602 5 26 -0.000556 16.801907 32.087942 13.541848
603 5 26 -0.040461 11.224526 26.723564 1.701583
604 5 26 0.047784 3.737825 27.446937 6.894832
605 5 26 -0.000797 5.239279 22.768000 1.672043
606 6 5 -0.051233 28.068995 23.720879 6.279811
607 6 26 -0.000556 27.670407 24.623729 6.789451
608 6 26 -0.000556 27.267980 23.303593 5.633109
609 6 5 0.030247 28.546929 22.688792 7.313856
610 6 26 0.028561 29.317453 23.197271 7.935565
611 6 6 0.077933 29.174403 21.515013 6.578869
612 6 6 -0.200132 28.415864 20.707568 5.708930
613 6 25 0.120991 27.360317 20.894185 5.562082
614 6 6 -0.123165 29.016658 19.654173 5.013860
615 6 25 0.137797 28.420240 19.047191 4.344683