LAMMPS Description

4098  atoms
3258  bonds
4104  angles
4374  dihedrals
0  impropers

87  atom types
840  bond types
4614  angle types
985  dihedral types
38  improper types

-0.5 40.5 xlo xhi
-0.5 40.5 ylo yhi
-0.5 40.5 zlo zhi

Masses

1 12.01
2 12.01
3 12.01
4 12.01
5 12.01
6 12.01
7 12.01
8 12.01
9 12.01
10 12.01
11 12.01
12 12.01
13 12.01
14 12.01
15 12.01
16 12.01
17 12.01
18 12.01
19 12.01
20 1.008
21 1.008
22 1.008
23 1.008
24 1.008
25 1.008
26 1.008
27 1.008
28 1.008
29 1.008
30 1.008
31 1.008
32 1.008
33 19.00
34 35.45
35 79.90
36 126.9
37 14.01
38 14.01
39 14.01
40 14.01
41 14.01
42 14.01
43 14.01
44 14.01
45 14.01
46 14.01
47 14.01
48 14.01
49 14.01
50 14.01
51 14.01
52 14.01
53 14.01
54 14.01
55 14.01
56 14.01
57 14.01
58 14.01
59 14.01
60 14.01
61 16.00
62 16.00
63 16.00
64 16.00
65 30.97
66 30.97
67 30.97
68 30.97
69 30.97
70 30.97
71 30.97
72 30.97
73 30.97
74 30.97
75 30.97
76 32.06
77 32.06
78 32.06
79 32.06
80 32.06
81 32.06
82 32.06
83 32.06
84 24.305
85 40.08
86 19.02
87 35.45

Atoms

1 1 5 0.23943 19.379731 37.444779 11.985788
2 1 63 -0.107446 20.151996 37.877440 10.864939
3 1 5 0.096748 20.240604 36.870949 13.133130
4 1 33 -0.083444 18.623135 38.497861 12.476880
5 1 33 -0.076564 21.025185 35.846376 12.628828
6 1 33 -0.076564 19.331990 36.314674 14.020620
7 1 5 0.239938 19.327794 37.984705 9.699575
8 1 5 0.031579 20.051749 38.745798 8.561645
9 1 33 -0.098346 18.152488 38.666094 9.997046
10 1 33 -0.098346 19.015020 36.714403 9.233361
11 1 5 0.417302 19.106953 38.920175 7.336854
12 1 63 -0.075238 21.184412 37.976647 8.168936
13 1 33 -0.094088 20.395744 39.999860 9.058324
14 1 33 -0.120596 18.708178 37.687730 6.848907
15 1 33 -0.120596 19.736052 39.598322 6.312528
16 1 33 -0.120596 17.979998 39.644900 7.682218
17 1 5 0.258717 22.344984 38.733033 7.856545
18 1 5 0.054096 23.285179 37.868759 7.005995
19 1 33 -0.09756 22.994561 39.080226 9.029084
20 1 33 -0.09756 22.062186 39.887141 7.140696
21 1 33 -0.120109 23.644413 36.738164 7.717536
22 1 33 -0.120109 24.429634 38.588150 6.710826
23 1 79 1.069374 22.506269 37.343819 5.435015
24 1 61 -0.610284 21.162874 36.335382 5.790619
25 1 61 -0.610284 23.691404 36.479876 4.542666
26 1 61 -0.610284 22.007507 38.734285 4.558501
27 1 5 0.244615 21.138803 37.889839 13.911302
28 1 33 -0.110109 22.133460 38.369799 13.076166
29 1 5 0.166751 21.766909 37.222358 15.177995
30 1 33 -0.110109 20.356819 38.954996 14.325906
31 1 33 -0.087619 22.549925 36.151640 14.776732
32 1 33 -0.087619 20.723729 36.731324 15.944965
33 1 5 0.133435 22.630835 38.160814 16.087165
34 1 33 -0.056543 23.753879 38.559904 15.387376
35 1 5 0.043406 23.024449 37.436185 17.422451
36 1 33 -0.056543 21.896454 39.289645 16.411336
37 1 33 -0.026439 23.670966 36.247805 17.118993
38 1 33 -0.026439 21.830480 37.119154 18.046433
39 1 5 -0.042189 23.955335 38.243142 18.412021
40 1 63 -0.05899 25.173212 38.428925 17.675581
41 1 5 0.198119 23.914457 37.514075 19.847603
42 1 33 -0.033517 23.402879 39.497980 18.609113
43 1 33 -0.070849 24.271482 36.182285 19.712691
44 1 33 -0.070849 22.577365 37.528385 20.204839
45 1 5 0.047327 26.422707 38.165381 18.272274
46 1 5 0.014492 27.532932 38.203979 17.197155
47 1 33 -0.023915 26.463436 36.908006 18.846904
48 1 33 -0.023915 26.715113 39.164724 19.184126
49 1 5 0.258874 27.307730 37.179961 16.063802
50 1 63 -0.046319 28.760305 37.872819 17.842598
51 1 33 -0.052305 27.528980 39.478467 16.632597
52 1 33 -0.07104 27.267939 35.891361 16.566431
53 1 33 -0.07104 28.343544 37.260166 15.151509
54 1 33 -0.07104 26.128161 37.434558 15.393260
55 1 5 0.242379 29.797598 38.820678 17.678208
56 1 5 0.030285 31.077059 38.258886 18.309380
57 1 33 -0.097617 29.471011 40.000666 18.329067
58 1 33 -0.097617 30.040389 39.077394 16.336480
59 1 33 -0.112266 30.862178 38.019134 19.655412
60 1 33 -0.112266 32.099322 39.182041 18.181781
61 1 79 1.088381 31.598601 36.696970 17.514823
62 1 61 -0.614813 30.370548 35.513809 17.723028
63 1 61 -0.614813 33.037328 36.150427 18.274740
64 1 61 -0.614813 31.891436 36.973423 15.844559
65 1 5 0.224162 24.646858 38.111051 21.114824
66 1 33 -0.097154 26.002090 37.877272 21.064681
67 1 5 0.152641 24.120214 37.458327 22.442909
68 1 33 -0.097154 24.424539 39.476297 21.174987
69 1 33 -0.114533 24.235776 36.081230 22.330815
70 1 33 -0.114533 22.777193 37.776211 22.573733
71 1 5 0.169008 24.852770 37.901624 23.754888
72 1 63 -0.058703 26.228086 37.530118 23.616793
73 1 5 0.283965 24.133932 37.238891 24.986740
74 1 33 -0.097241 24.747869 39.280092 23.864595
75 1 33 -0.09168 24.256834 35.861207 24.938238
76 1 33 -0.09168 22.787704 37.557073 25.006115
77 1 5 0.211916 27.033913 37.660511 24.780272
78 1 5 0.001658 28.531333 37.711730 24.403236
79 1 33 -0.094681 26.839781 36.562487 25.604797
80 1 33 -0.094681 26.748368 38.828957 25.473693
81 1 5 0.294487 28.973771 36.509386 23.546338
82 1 63 -0.046447 29.280128 37.669862 25.615981
83 1 33 -0.068202 28.754870 38.862095 23.649324
84 1 33 -0.089747 28.750203 35.320067 24.217421
85 1 33 -0.089747 30.326817 36.613174 23.275878
86 1 33 -0.089747 28.292652 36.483164 22.342388
87 1 5 0.23616 30.031545 38.833463 25.901757
88 1 5 0.049903 30.690970 38.665309 27.277145
89 1 33 -0.095009 29.207123 39.947684 25.958869
90 1 33 -0.095009 31.017607 39.025809 24.946295
91 1 33 -0.119297 29.712186 38.479053 28.238037
92 1 33 -0.119297 31.401800 39.810307 27.589438
93 1 79 1.089277 31.838223 37.241461 27.328593
94 1 61 -0.616384 31.107174 35.849309 26.636648
95 1 61 -0.616384 32.209046 36.912073 28.972044
96 1 61 -0.616384 33.274735 37.649023 26.479913
97 1 33 -0.083444 18.513089 36.416932 11.623787
98 1 33 -0.09168 24.640770 37.685741 26.192117
99 2 5 0.23943 31.568335 27.913396 15.001897
100 2 63 -0.107446 31.416079 29.122703 14.257394
101 2 5 0.096748 31.311943 26.643749 14.159852
102 2 33 -0.083444 32.844256 27.843886 15.540216
103 2 33 -0.076564 30.052267 26.736463 13.590418
104 2 33 -0.076564 31.289957 25.603209 15.076067
105 2 5 0.239938 31.233189 30.234968 15.139609
106 2 5 0.031579 31.383241 31.582432 14.391223
107 2 33 -0.098346 32.172852 30.201658 16.164327
108 2 33 -0.098346 29.957464 30.189029 15.686660
109 2 5 0.417302 31.261253 32.773650 15.385848
110 2 63 -0.075238 30.336078 31.670800 13.429777
111 2 33 -0.094088 32.649761 31.594371 13.813745
112 2 33 -0.120596 30.027387 32.761126 16.013104
113 2 33 -0.120596 31.393967 33.983752 14.735517
114 2 33 -0.120596 32.249479 32.712634 16.352397
115 2 5 0.258717 30.706894 32.255462 12.189896
116 2 5 0.054096 29.439218 32.730848 11.467829
117 2 33 -0.09756 31.338482 31.304670 11.406038
118 2 33 -0.09756 31.548976 33.347971 12.337198
119 2 33 -0.120109 28.603489 31.651922 11.241858
120 2 33 -0.120109 29.785406 33.285535 10.248443
121 2 79 1.069374 28.522218 33.983330 12.437696
122 2 61 -0.610284 27.969397 33.262432 13.894680
123 2 61 -0.610284 27.196128 34.500156 11.477694
124 2 61 -0.610284 29.559614 35.310975 12.771767
125 2 5 0.244615 32.368560 26.312468 13.053388
126 2 33 -0.110109 32.324770 27.276814 12.060778
127 2 5 0.166751 32.111594 24.894690 12.446401
128 2 33 -0.110109 33.631988 26.318143 13.620550
129 2 33 -0.087619 30.847791 24.874573 11.878104
130 2 33 -0.087619 32.128895 23.988913 13.493707
131 2 5 0.133435 33.148802 24.411485 11.376648
132 2 33 -0.056543 33.057974 25.221409 10.260414
133 2 5 0.043406 32.906317 22.906280 11.004404
134 2 33 -0.056543 34.428827 24.525335 11.893596
135 2 33 -0.026439 31.595055 22.750038 10.581914
136 2 33 -0.026439 33.056899 22.196606 12.183010
137 2 5 -0.042189 33.840996 22.300037 9.883770
138 2 63 -0.05899 33.525091 23.065170 8.711227
139 2 5 0.198119 33.708195 20.695630 9.932228
140 2 33 -0.033517 35.157329 22.580755 10.211086
141 2 33 -0.070849 32.378981 20.326433 9.804878
142 2 33 -0.070849 34.089080 20.355749 11.218713
143 2 5 0.047327 33.281533 22.426274 7.478657
144 2 5 0.014492 32.726185 23.449331 6.461350
145 2 33 -0.023915 32.336282 21.423589 7.596860
146 2 33 -0.023915 34.476618 21.957395 6.961371
147 2 5 0.258874 31.415505 24.115101 6.933248
148 2 63 -0.046319 32.442644 22.739709 5.257711
149 2 33 -0.052305 33.684241 24.449460 6.303444
150 2 33 -0.07104 30.429623 23.166672 7.141161
151 2 33 -0.07104 30.971000 25.001939 5.970152
152 2 33 -0.07104 31.611444 24.819867 8.104035
153 2 5 0.242379 33.064424 23.257434 4.097199
154 2 5 0.030285 32.555755 22.475342 2.880402
155 2 33 -0.097617 34.438597 23.091697 4.179859
156 2 33 -0.097617 32.764360 24.600266 3.918744
157 2 33 -0.112266 32.867946 21.135152 3.028341
158 2 33 -0.112266 33.171112 22.949552 1.735859
159 2 79 1.088381 30.745521 22.633548 2.678082
160 2 61 -0.614813 29.958659 21.985209 4.060775
161 2 61 -0.614813 30.269723 21.739422 1.292343
162 2 61 -0.614813 30.334260 24.288963 2.472109
163 2 5 0.224162 34.587956 19.751304 9.019590
164 2 33 -0.097154 34.115885 19.724507 7.727208
165 2 5 0.152641 34.571590 18.270074 9.541992
166 2 33 -0.097154 35.896475 20.203738 9.014668
167 2 33 -0.114533 33.252140 17.860256 9.657814
168 2 33 -0.114533 35.147881 18.253627 10.802742
169 2 5 0.169008 35.327344 17.226772 8.650478
170 2 63 -0.058703 34.693686 17.230247 7.367105
171 2 5 0.283965 35.300639 15.829043 9.370921
172 2 33 -0.097241 36.645283 17.639427 8.524125
173 2 33 -0.09168 34.002647 15.360107 9.474795
174 2 33 -0.09168 35.836941 15.916029 10.643226
175 2 5 0.211916 35.096231 16.208412 6.464966
176 2 5 0.001658 34.739537 16.592832 5.011681
177 2 33 -0.094681 34.429706 15.031120 6.769781
178 2 33 -0.094681 36.468179 15.999317 6.505863
179 2 5 0.294487 33.248934 16.942493 4.834215
180 2 63 -0.046447 35.012886 15.460296 4.189586
181 2 33 -0.068202 35.474532 17.724519 4.664174
182 2 33 -0.089747 32.448019 15.873053 5.194282
183 2 33 -0.089747 33.004888 17.246229 3.506495
184 2 33 -0.089747 32.904619 18.042115 5.599972
185 2 5 0.23616 36.047312 15.638241 3.241662
186 2 5 0.049903 36.280725 14.306715 2.515462
187 2 33 -0.095009 37.232112 15.993356 3.869806
188 2 33 -0.095009 35.698243 16.606531 2.312797
189 2 33 -0.119297 36.636057 13.335742 3.435775
190 2 33 -0.119297 37.315065 14.452689 1.608457
191 2 79 1.089277 34.795660 13.738501 1.611089
192 2 61 -0.616384 33.400056 13.851975 2.606439
193 2 61 -0.616384 35.031141 12.095073 1.174473
194 2 61 -0.616384 34.602476 14.692940 0.196289
195 2 33 -0.083444 30.650408 27.855706 16.047203
196 2 33 -0.09168 36.060584 14.883578 8.709050
197 3 5 0.23943 10.090796 22.936443 16.591573
198 3 63 -0.107446 9.648712 23.398784 15.314588
199 3 5 0.096748 10.783182 21.556599 16.533153
200 3 33 -0.083444 10.966435 23.853714 17.152341
201 3 33 -0.076564 9.920370 20.652743 15.934625
202 3 33 -0.076564 10.944383 21.179005 17.857576
203 3 5 0.239938 8.663156 24.425626 15.466779
204 3 5 0.031579 8.400309 25.161378 14.129678
205 3 33 -0.098346 9.081220 25.365042 16.403178
206 3 33 -0.098346 7.465782 23.861512 15.887399
207 3 5 0.417302 7.387110 26.324499 14.338810
208 3 63 -0.075238 7.847220 24.222704 13.212224
209 3 33 -0.094088 9.617074 25.684012 13.700689
210 3 33 -0.120596 6.179677 25.840580 14.812055
211 3 33 -0.120596 7.141849 26.992751 13.156365
212 3 33 -0.120596 7.877804 27.249754 15.243053
213 3 5 0.258717 8.297752 24.355751 11.872090
214 3 5 0.054096 7.298646 23.655026 10.941958
215 3 33 -0.09756 9.533993 23.745740 11.741957
216 3 33 -0.09756 8.403916 25.677849 11.465685
217 3 33 -0.120109 7.218447 22.314744 11.274818
218 3 33 -0.120109 7.736511 23.760718 9.633703
219 3 79 1.069374 5.623342 24.383491 11.055694
220 3 61 -0.610284 5.015644 24.134464 12.642136
221 3 61 -0.610284 4.639963 23.582335 9.898827
222 3 61 -0.610284 5.709841 26.060450 10.694080
223 3 5 0.244615 12.178377 21.502948 15.825340
224 3 33 -0.110109 12.027057 21.757739 14.472809
225 3 5 0.166751 12.859427 20.112706 16.044335
226 3 33 -0.110109 12.997988 22.477237 16.370274
227 3 33 -0.087619 12.046808 19.127595 15.506032
228 3 33 -0.087619 12.942386 19.905363 17.410976
229 3 5 0.133435 14.298808 19.955568 15.446717
230 3 33 -0.056543 14.226277 20.024720 14.068253
231 3 5 0.043406 14.951768 18.606315 15.911656
232 3 33 -0.056543 15.097562 20.995548 15.892918
233 3 33 -0.026439 14.115255 17.555951 15.566260
234 3 33 -0.026439 15.002936 18.667715 17.293334
235 3 5 -0.042189 16.384900 18.282037 15.330316
236 3 63 -0.05899 16.171738 18.164752 13.915788
237 3 5 0.198119 17.027607 17.095907 16.210162
238 3 33 -0.033517 17.199086 19.384779 15.529643
239 3 33 -0.070849 16.175840 16.003404 16.226389
240 3 33 -0.070849 17.050400 17.595818 17.500590
241 3 5 0.047327 16.708736 17.079455 13.194332
242 3 5 0.014492 16.125205 17.064610 11.762814
243 3 33 -0.023915 16.384172 15.865974 13.773100
244 3 33 -0.023915 18.076721 17.246276 13.066077
245 3 5 0.258874 14.585637 16.949963 11.742660
246 3 63 -0.046319 16.653691 15.917660 11.101061
247 3 33 -0.052305 16.475114 18.267946 11.152400
248 3 33 -0.07104 14.171199 15.786584 12.366759
249 3 33 -0.07104 14.137797 16.926308 10.434798
250 3 33 -0.07104 14.000206 18.028812 12.374472
251 3 5 0.242379 17.311119 16.183095 9.876818
252 3 5 0.030285 17.697168 14.847490 9.230186
253 3 33 -0.097617 18.470310 16.908294 10.107065
254 3 33 -0.097617 16.489326 16.878717 9.001689
255 3 33 -0.112266 18.538083 14.148654 10.078684
256 3 33 -0.112266 18.364660 15.084956 8.042086
257 3 79 1.088381 16.231323 13.812547 8.879331
258 3 61 -0.614813 15.425933 13.447072 10.352121
259 3 61 -0.614813 16.756121 12.349981 8.150217
260 3 61 -0.614813 15.180002 14.651372 7.810193
261 3 5 0.224162 18.505728 16.584954 15.980542
262 3 33 -0.097154 18.586635 15.771374 14.873582
263 3 5 0.152641 19.018866 15.743476 17.203578
264 3 33 -0.097154 19.346974 17.670857 15.807157
265 3 33 -0.114533 18.109909 14.725447 17.447974
266 3 33 -0.114533 19.053698 16.575341 18.312026
267 3 5 0.169008 20.436894 15.098457 17.037483
268 3 63 -0.058703 20.369835 14.214671 15.913649
269 3 5 0.283965 20.832988 14.388788 18.383915
270 3 33 -0.097241 21.346935 16.113378 16.782580
271 3 33 -0.09168 19.973745 13.337066 18.650479
272 3 33 -0.09168 20.782115 15.274426 19.445520
273 3 5 0.211916 21.496320 13.372651 15.708521
274 3 5 0.001658 21.529709 12.851548 14.254429
275 3 33 -0.094681 21.415247 12.275135 16.552363
276 3 33 -0.094681 22.688945 14.049367 15.926087
277 3 5 0.294487 20.221625 12.149153 13.840652
278 3 63 -0.046447 22.577049 11.887738 14.168703
279 3 33 -0.068202 21.702650 13.940229 13.402046
280 3 33 -0.089747 19.961389 11.070446 14.667382
281 3 33 -0.089747 20.340834 11.687867 12.541553
282 3 33 -0.089747 19.152328 13.025540 13.892189
283 3 5 0.23616 23.655922 12.242267 13.325730
284 3 5 0.049903 24.732818 11.153495 13.424120
285 3 33 -0.095009 24.223925 13.440225 13.734009
286 3 33 -0.095009 23.234268 12.345696 12.009018
287 3 33 -0.119297 25.163779 11.048445 14.735326
288 3 33 -0.119297 25.812684 11.501876 12.632700
289 3 79 1.089277 24.120351 9.518618 12.878004
290 3 61 -0.616384 22.594338 9.175308 13.588447
291 3 61 -0.616384 25.247358 8.327736 13.386525
292 3 61 -0.616384 23.999902 9.509658 11.164719
293 3 33 -0.083444 9.014619 22.773918 17.459913
294 3 33 -0.09168 22.127865 13.906844 18.361230
295 4 5 0.23943 37.741094 31.601282 21.735926
296 4 63 -0.107446 38.029408 32.965539 21.426783
297 4 5 0.096748 37.152820 30.817642 20.541513
298 4 33 -0.083444 38.890529 30.959091 22.170647
299 4 33 -0.076564 36.028175 31.485200 20.084156
300 4 33 -0.076564 36.741588 29.605422 21.074495
301 4 5 0.239938 38.149523 33.736926 22.626542
302 4 5 0.031579 38.767881 35.128714 22.345799
303 4 33 -0.098346 38.959789 33.080610 23.546782
304 4 33 -0.098346 36.891342 33.931679 23.181432
305 4 5 0.417302 38.963114 35.915356 23.674797
306 4 63 -0.075238 37.869098 35.848581 21.507515
307 4 33 -0.094088 40.008619 34.916225 21.751566
308 4 33 -0.120596 37.749768 36.101053 24.314596
309 4 33 -0.120596 39.515051 37.159014 23.443344
310 4 33 -0.120596 39.814444 35.237188 24.529114
311 4 5 0.258717 38.487717 36.644736 20.507472
312 4 5 0.054096 37.486794 37.704788 20.029124
313 4 33 -0.09756 38.836726 35.842283 19.434345
314 4 33 -0.09756 39.620477 37.302797 20.963749
315 4 33 -0.120109 36.369593 37.081769 19.502536
316 4 33 -0.120109 38.071256 38.475592 19.039836
317 4 79 1.069374 36.950789 38.809033 21.386910
318 4 61 -0.610284 36.102349 37.880816 22.555958
319 4 61 -0.610284 35.923577 40.000296 20.699194
320 4 61 -0.610284 38.330324 39.555012 22.087506
321 4 5 0.244615 38.121596 30.534032 19.345066
322 4 33 -0.110109 38.451568 31.723597 18.718000
323 4 5 0.166751 37.470219 29.543807 18.325398
324 4 33 -0.110109 39.281081 29.953795 19.831763
325 4 33 -0.087619 36.305884 30.111637 17.832999
326 4 33 -0.087619 37.130070 28.397656 19.024126
327 4 5 0.133435 38.370100 29.119198 17.115613
328 4 33 -0.056543 38.614935 30.225267 16.323860
329 4 5 0.043406 37.689099 27.971830 16.289301
330 4 33 -0.056543 39.582875 28.646103 17.588920
331 4 33 -0.026439 36.427049 28.387148 15.892993
332 4 33 -0.026439 37.528374 26.916267 17.169855
333 4 5 -0.042189 38.456415 27.486459 14.996004
334 4 63 -0.05899 38.477851 28.642635 14.145780
335 4 5 0.198119 37.819747 26.081897 14.531282
336 4 33 -0.033517 39.769006 27.210794 15.342102
337 4 33 -0.070849 36.453627 26.219294 14.346421
338 4 33 -0.070849 37.986784 25.248224 15.623401
339 4 5 0.047327 38.127394 28.541667 12.784266
340 4 5 0.014492 37.993533 29.955591 12.173635
341 4 33 -0.023915 36.907730 27.912633 12.612260
342 4 33 -0.023915 39.144350 27.903912 12.095260
343 4 5 0.258874 36.932535 30.820542 12.887752
344 4 63 -0.046319 37.580927 29.795156 10.818377
345 4 33 -0.052305 39.227152 30.590832 12.306737
346 4 33 -0.07104 35.685612 30.224501 12.819722
347 4 33 -0.07104 36.856832 32.060141 12.280063
348 4 33 -0.07104 37.262902 31.015173 14.213953
349 4 5 0.242379 38.410543 30.425874 9.861628
350 4 5 0.030285 37.762852 30.277171 8.479821
351 4 33 -0.097617 39.652886 29.810849 9.830336
352 4 33 -0.097617 38.563499 31.777128 10.136947
353 4 33 -0.112266 37.624243 28.934066 8.175988
354 4 33 -0.112266 38.571554 30.866050 7.524446
355 4 79 1.088381 36.113485 31.063347 8.413324
356 4 61 -0.614813 35.071503 30.298543 9.544996
357 4 61 -0.614813 35.472709 30.857716 6.834323
358 4 61 -0.614813 36.261984 32.737962 8.767686
359 4 5 0.224162 38.414225 25.246447 13.328262
360 4 33 -0.097154 38.045247 25.784019 12.116366
361 4 5 0.152641 37.895106 23.764088 13.346741
362 4 33 -0.097154 39.795927 25.231937 13.415612
363 4 33 -0.114533 36.509150 23.784952 13.378454
364 4 33 -0.114533 38.351125 23.164523 14.510545
365 4 5 0.169008 38.339509 22.873395 12.136943
366 4 63 -0.058703 37.826609 23.486967 10.949911
367 4 5 0.283965 37.823824 21.406039 12.370044
368 4 33 -0.097241 39.725635 22.858889 12.096242
369 4 33 -0.09168 36.440260 21.371052 12.370564
370 4 33 -0.09168 38.273969 20.907943 13.579679
371 4 5 0.211916 37.944291 22.732128 9.751407
372 4 5 0.001658 37.825366 23.650706 8.514832
373 4 33 -0.094681 36.920665 21.798639 9.688383
374 4 33 -0.094681 39.173592 22.092372 9.666754
375 4 5 0.294487 36.537383 24.497302 8.520350
376 4 63 -0.046447 37.780422 22.813132 7.361728
377 4 33 -0.068202 38.902196 24.535072 8.520004
378 4 33 -0.089747 35.417039 23.685652 8.549776
379 4 33 -0.089747 36.491140 25.267897 7.372004
380 4 33 -0.089747 36.508516 25.346147 9.612475
381 4 5 0.23616 38.878789 22.940784 6.479937
382 4 5 0.049903 38.726682 21.908017 5.355186
383 4 33 -0.095009 40.070397 22.678271 7.139920
384 4 33 -0.095009 38.916888 24.211590 5.926924
385 4 33 -0.119297 38.694231 20.635520 5.898990
386 4 33 -0.119297 39.812120 21.994184 4.501824
387 4 79 1.089277 37.201928 22.164332 4.377634
388 4 61 -0.616384 35.850864 22.397581 5.412780
389 4 61 -0.616384 36.933751 20.760683 3.426431
390 4 61 -0.616384 37.415561 23.526932 3.354104
391 4 33 -0.083444 36.784527 31.512674 22.743751
392 4 33 -0.09168 38.287840 20.528456 11.408779
393 5 5 0.23943 33.682866 14.651704 37.287203
394 5 63 -0.107446 33.696156 13.295093 36.840750
395 5 5 0.096748 33.634516 15.673218 36.129209
396 5 33 -0.083444 32.595874 14.867385 38.120583
397 5 33 -0.076564 34.698820 15.427638 35.276812
398 5 33 -0.076564 33.844053 16.905977 36.728425
399 5 5 0.239938 34.169205 12.430297 37.878651
400 5 5 0.031579 33.898220 10.942711 37.544119
401 5 33 -0.098346 33.537897 12.725566 39.082142
402 5 33 -0.098346 35.540331 12.592185 38.029174
403 5 5 0.417302 34.347109 10.029672 38.722260
404 5 63 -0.075238 34.652892 10.608156 36.383394
405 5 33 -0.094088 32.525941 10.806221 37.354605
406 5 33 -0.120596 35.701276 10.179336 38.966935
407 5 33 -0.120596 34.111540 8.699033 38.441552
408 5 33 -0.120596 33.651993 10.338195 39.878184
409 5 5 0.258717 33.996182 9.742679 35.468887
410 5 5 0.054096 35.048256 9.088637 34.563490
411 5 33 -0.09756 33.126697 10.480815 34.683719
412 5 33 -0.09756 33.285409 8.730457 36.097049
413 5 33 -0.120109 35.732595 10.068517 33.867000
414 5 33 -0.120109 34.419084 8.256917 33.654198
415 5 79 1.069374 36.258609 8.099836 35.516150
416 5 61 -0.610284 37.141073 9.148169 36.550734
417 5 61 -0.610284 37.305427 7.346627 34.382979
418 5 61 -0.610284 35.422843 6.907893 36.427853
419 5 5 0.244615 32.303708 15.737293 35.307447
420 5 33 -0.110109 32.132815 14.558855 34.600881
421 5 5 0.166751 32.310745 16.959942 34.332953
422 5 33 -0.110109 31.240572 15.886978 36.182256
423 5 33 -0.087619 33.373148 16.823975 33.453534
424 5 33 -0.087619 32.524971 18.094641 35.097250
425 5 5 0.133435 31.000121 17.180040 33.503808
426 5 33 -0.056543 30.832919 16.120448 32.632306
427 5 5 0.043406 31.051303 18.545090 32.731133
428 5 33 -0.056543 29.913495 17.212776 34.362198
429 5 33 -0.026439 32.190950 18.576167 31.942111
430 5 33 -0.026439 31.183217 19.523528 33.701020
431 5 5 -0.042189 29.818945 18.870691 31.797188
432 5 63 -0.05899 29.850719 17.837825 30.801065
433 5 5 0.198119 29.871844 20.436303 31.422802
434 5 33 -0.033517 28.655748 18.695707 32.528641
435 5 33 -0.070849 31.096136 20.745841 30.853039
436 5 33 -0.070849 29.831353 21.085616 32.644435
437 5 5 0.047327 29.719973 18.152414 29.433338
438 5 5 0.014492 30.037760 16.904380 28.578123
439 5 33 -0.023915 30.606001 19.141194 29.045888
440 5 33 -0.023915 28.406208 18.495882 29.165548
441 5 5 0.258874 31.461342 16.357420 28.819095
442 5 63 -0.046319 29.949351 17.294100 27.209544
443 5 33 -0.052305 29.128644 15.908528 28.931460
444 5 33 -0.07104 32.413446 17.315028 28.517112
445 5 33 -0.07104 31.679568 15.256154 28.012116
446 5 33 -0.07104 31.624954 15.963231 30.131984
447 5 5 0.242379 29.068822 16.516198 26.421525
448 5 5 0.030285 29.189480 16.970038 24.961909
449 5 33 -0.097617 27.760036 16.714923 26.834123
450 5 33 -0.097617 29.383178 15.166754 26.494104
451 5 33 -0.112266 28.855432 18.309608 24.864835
452 5 33 -0.112266 28.317024 16.238148 24.176623
453 5 79 1.088381 30.885269 16.743674 24.316955
454 5 61 -0.614813 31.976940 17.700445 25.235747
455 5 61 -0.614813 30.922935 17.265210 22.682116
456 5 61 -0.614813 31.316329 15.083006 24.408208
457 5 5 0.224162 28.729505 21.139870 30.586923
458 5 33 -0.097154 28.836060 20.843427 29.247301
459 5 5 0.152641 28.804057 22.703567 30.715408
460 5 33 -0.097154 27.494256 20.716993 31.047660
461 5 33 -0.114533 30.081850 23.112128 30.365213
462 5 33 -0.114533 28.586413 23.035544 32.043676
463 5 5 0.169008 27.781242 23.506653 29.841715
464 5 63 -0.058703 28.047301 23.180972 28.473605
465 5 5 0.283965 27.923343 25.037732 30.171876
466 5 33 -0.097241 26.502238 23.092744 30.182362
467 5 33 -0.09168 29.174059 25.500962 29.802281
468 5 33 -0.09168 27.752921 25.271740 31.524703
469 5 5 0.211916 27.362576 23.956067 27.498709
470 5 5 0.001658 27.337568 23.223064 26.138882
471 5 33 -0.094681 28.020903 25.163414 27.319539
472 5 33 -0.094681 26.042372 24.186579 27.861423
473 5 5 0.294487 28.743033 22.821311 25.650088
474 5 63 -0.046447 26.792495 24.123400 25.176859
475 5 33 -0.068202 26.599450 22.050371 26.286065
476 5 33 -0.089747 29.551332 23.935876 25.511483
477 5 33 -0.089747 28.638875 22.198724 24.418752
478 5 33 -0.089747 29.339483 21.938177 26.532374
479 5 5 0.23616 25.553361 23.732292 24.618430
480 5 5 0.049903 25.061488 24.848501 23.687328
481 5 33 -0.095009 24.601316 23.557102 25.612080
482 5 33 -0.095009 25.693408 22.561675 23.888864
483 5 33 -0.119297 24.912979 26.019708 24.409994
484 5 33 -0.119297 23.831644 24.498403 23.159369
485 5 79 1.089277 26.216732 25.158794 22.303382
486 5 61 -0.616384 27.831943 25.274296 22.877019
487 5 61 -0.616384 25.783343 26.648292 21.568189
488 5 61 -0.616384 26.075948 23.884697 21.160234
489 5 33 -0.083444 34.842597 14.951568 37.996914
490 5 33 -0.09168 26.963345 25.802223 29.536697
491 6 5 0.23943 1.636691 12.642590 32.511694
492 6 63 -0.107446 2.849935 12.027169 32.946652
493 6 5 0.096748 1.829040 14.101049 32.039809
494 6 33 -0.083444 1.074598 11.907930 31.478776
495 6 33 -0.076564 2.428684 14.821569 33.060061
496 6 33 -0.076564 0.545057 14.595116 31.866761
497 6 5 0.239938 2.568422 10.880762 33.756213
498 6 5 0.031579 3.835201 10.017544 33.976174
499 6 33 -0.098346 1.601531 10.084805 33.151483
500 6 33 -0.098346 2.109634 11.292369 35.000778
501 6 5 0.417302 3.486342 8.736863 34.789385
502 6 63 -0.075238 4.774534 10.794332 34.713055
503 6 33 -0.094088 4.306266 9.649083 32.719182
504 6 33 -0.120596 2.969284 9.071781 36.028947
505 6 33 -0.120596 4.604633 7.954245 34.993896
506 6 33 -0.120596 2.557045 7.963168 34.116827
507 6 5 0.258717 6.129249 10.630200 34.320058
508 6 5 0.054096 7.037158 11.105810 35.461929
509 6 33 -0.09756 6.377703 11.403916 33.198909
510 6 33 -0.09756 6.454666 9.311656 34.037344
511 6 33 -0.120109 6.787824 12.440667 35.725700
512 6 33 -0.120109 8.361097 10.969157 35.083857
513 6 79 1.069374 6.769210 10.149530 36.999451
514 6 61 -0.610284 5.166706 10.423184 37.551903
515 6 61 -0.610284 7.910453 10.709750 38.153117
516 6 61 -0.610284 7.025658 8.481383 36.680147
517 6 5 0.244615 2.626711 14.306623 30.708678
518 6 33 -0.110109 3.947313 13.933061 30.892028
519 6 5 0.166751 2.542757 15.794187 30.234688
520 6 33 -0.110109 2.073087 13.506320 29.723300
521 6 33 -0.087619 3.090930 16.606683 31.214444
522 6 33 -0.087619 1.200637 16.111947 30.110893
523 6 5 0.133435 3.240259 16.116479 28.869670
524 6 33 -0.056543 4.603818 15.935686 29.004679
525 6 5 0.043406 2.906921 17.577670 28.404037
526 6 33 -0.056543 2.779343 15.241015 27.900248
527 6 33 -0.026439 3.265713 18.465284 29.406898
528 6 33 -0.026439 1.530293 17.626788 28.270224
529 6 5 -0.042189 3.598697 18.065111 27.069562
530 6 63 -0.05899 5.001305 18.044886 27.373477
531 6 5 0.198119 2.840907 19.394574 26.567179
532 6 33 -0.033517 3.380524 17.111752 26.088655
533 6 33 -0.070849 2.841353 20.348250 27.572085
534 6 33 -0.070849 1.524778 19.000237 26.400028
535 6 5 0.047327 5.824794 19.140955 27.046007
536 6 5 0.014492 7.213939 18.964012 27.700940
537 6 33 -0.023915 5.306679 20.333016 27.518655
538 6 33 -0.023915 6.029230 19.167915 25.677380
539 6 5 0.258874 7.142910 18.849405 29.239004
540 6 63 -0.046319 7.981444 20.124057 27.387986
541 6 33 -0.052305 7.765851 17.783341 27.206502
542 6 33 -0.07104 6.570637 19.982193 29.790368
543 6 33 -0.07104 8.418177 18.710232 29.754706
544 6 33 -0.07104 6.406010 17.745952 29.620057
545 6 5 0.242379 9.225377 19.868308 26.764561
546 6 5 0.030285 9.980989 21.194629 26.619888
547 6 33 -0.097617 9.023084 19.340327 25.498479
548 6 33 -0.097617 9.998944 18.996710 27.517551
549 6 33 -0.112266 9.235376 22.070239 25.849935
550 6 33 -0.112266 11.191396 20.970619 25.988816
551 6 79 1.088381 10.303922 21.974163 28.241908
552 6 61 -0.614813 8.809521 22.325228 29.013176
553 6 61 -0.614813 11.158821 23.440003 27.983876
554 6 61 -0.614813 11.246668 20.913242 29.210224
555 6 5 0.224162 3.197467 20.098763 25.197646
556 6 33 -0.097154 4.357958 20.831299 25.299985
557 6 5 0.152641 2.067184 21.094608 24.752711
558 6 33 -0.097154 3.353278 19.138431 24.212543
559 6 33 -0.114533 1.831905 21.983292 25.790592
560 6 33 -0.114533 0.911431 20.361151 24.533286
561 6 5 0.169008 2.365368 21.926905 23.459340
562 6 63 -0.058703 3.537760 22.705703 23.719242
563 6 5 0.283965 1.096128 22.784663 23.103415
564 6 33 -0.097241 2.611382 21.040669 22.421421
565 6 33 -0.09168 0.844151 23.715525 24.096126
566 6 33 -0.09168 -0.021965 21.982111 22.962975
567 6 5 0.211916 3.868976 23.686597 22.745493
568 6 5 0.001658 5.353062 24.097990 22.869159
569 6 33 -0.094681 3.094932 24.819648 22.946079
570 6 33 -0.094681 3.684608 23.210413 21.454412
571 6 5 0.294487 5.727101 24.568031 24.288600
572 6 63 -0.046447 5.568238 25.196215 21.985531
573 6 33 -0.068202 6.142067 22.986519 22.579685
574 6 33 -0.089747 4.957403 25.654940 24.664108
575 6 33 -0.089747 7.058440 24.944491 24.310215
576 6 33 -0.089747 5.550257 23.550283 25.208938
577 6 5 0.23616 6.453674 24.942699 20.912221
578 6 5 0.049903 6.495533 26.182141 20.008430
579 6 33 -0.095009 6.005462 23.874701 20.148738
580 6 33 -0.095009 7.731157 24.681366 21.383355
581 6 33 -0.119297 5.224236 26.446033 19.528650
582 6 33 -0.119297 7.330096 25.938647 18.932306
583 6 79 1.089277 7.106610 27.664382 20.889183
584 6 61 -0.616384 6.323792 27.831337 22.409259
585 6 61 -0.616384 6.749908 29.042232 19.929375
586 6 61 -0.616384 8.805608 27.528839 21.101230
587 6 33 -0.083444 0.713664 12.708989 33.551981
588 6 33 -0.09168 1.232999 23.448617 21.899287
589 7 5 0.23943 30.595818 31.142303 26.432665
590 7 63 -0.107446 31.745846 30.992140 27.266197
591 7 5 0.096748 30.791592 30.560983 25.014738
592 7 33 -0.083444 29.499345 30.530048 27.020443
593 7 33 -0.076564 31.912275 31.145266 24.447006
594 7 33 -0.076564 29.681991 30.981658 24.297466
595 7 5 0.239938 31.684207 31.897215 28.373413
596 7 5 0.031579 32.737616 31.544950 29.452530
597 7 33 -0.098346 30.426609 31.855033 28.965690
598 7 33 -0.098346 31.939244 33.189109 27.932033
599 7 5 0.417302 32.596296 32.491555 30.680181
600 7 63 -0.075238 34.029870 31.717670 28.878957
601 7 33 -0.094088 32.494799 30.234141 29.853173
602 7 33 -0.120596 32.785335 33.810146 30.303864
603 7 33 -0.120596 33.527538 32.190762 31.653425
604 7 33 -0.120596 31.343370 32.370796 31.254746
605 7 5 0.258717 34.992458 30.747201 29.263994
606 7 5 0.054096 36.395375 31.307681 28.995556
607 7 33 -0.09756 34.815814 29.601527 28.506651