LAMMPS Description

3553  atoms
3332  bonds
5100  angles
6868  dihedrals
2448  impropers

906  atom types
379  bond types
1017  angle types
800  dihedral types
6  improper types

-0.05 40.05 xlo xhi
-0.05 40.05 ylo yhi
-0.05 40.05 zlo zhi

Masses

1 18.998  # 1
2 14.027  # 2
3 12.011  # 3
4 15.999  # 4
5 15.999  # 5
6 15.035  # 6
7 1.008  # 7
8 16.043  # 8
9 15.035  # 9
10 15.035  # 10
11 15.035  # 11
12 15.035  # 12
13 14.027  # 13
14 14.027  # 14
15 13.019  # 15
16 13.019  # 16
17 13.019  # 17
18 12.011  # 18
19 12.011  # 19
20 15.999  # 20
21 1.008  # 21
22 15.035  # 22
23 14.027  # 23
24 32.06  # 24
25 32.06  # 25
26 32.06  # 26
27 32.06  # 27
28 1.008  # 28
29 1.008  # 29
30 15.035  # 30
31 14.027  # 31
32 15.035  # 32
33 14.027  # 33
34 15.035  # 34
35 14.027  # 35
36 14.007  # 36
37 12.011  # 37
38 15.035  # 38
39 13.019  # 39
40 12.011  # 40
41 15.999  # 41
42 15.035  # 42
43 14.027  # 43
44 14.027  # 44
45 35.453  # 45
46 12.011  # 46
47 35.453  # 47
48 12.011  # 48
49 35.453  # 49
50 32.06  # 50
51 15.999  # 51
52 15.035  # 52
53 15.999  # 53
54 14.007  # 54
55 12.011  # 55
56 15.035  # 56
57 1.0  # 57
58 4.003  # 58
59 20.179  # 59
60 39.948  # 60
61 83.8  # 61
62 131.3  # 62
63 15.999  # 63
64 1.008  # 64
65 15.999  # 65
66 1.008  # 66
67 1e-30  # 67
68 15.999  # 68
69 1.008  # 69
70 15.999  # 70
71 1.008  # 71
72 1e-30  # 72
73 15.999  # 73
74 1.008  # 74
75 1e-30  # 75
76 15.999  # 76
77 1.008  # 77
78 14.007  # 78
79 1.008  # 79
80 12.011  # 80
81 12.011  # 81
82 12.011  # 82
83 12.011  # 83
84 12.011  # 84
85 1.008  # 85
86 12.011  # 86
87 12.011  # 87
88 12.011  # 88
89 1.008  # 89
90 12.011  # 90
91 1.008  # 91
92 12.011  # 92
93 12.011  # 93
94 12.011  # 94
95 12.011  # 95
96 15.999  # 96
97 1.008  # 97
98 1.008  # 98
99 12.011  # 99
100 12.011  # 100
101 12.011  # 101
102 12.011  # 102
103 12.011  # 103
104 15.999  # 104
105 1.008  # 105
106 18.998  # 106
107 1.008  # 107
108 12.011  # 108
109 15.999  # 109
110 1.008  # 110
111 15.999  # 111
112 1.008  # 112
113 15.999  # 113
114 1.008  # 114
115 12.011  # 115
116 12.011  # 116
117 12.011  # 117
118 1.008  # 118
119 15.999  # 119
120 12.011  # 120
121 15.999  # 121
122 15.999  # 122
123 12.011  # 123
124 12.011  # 124
125 12.011  # 125
126 12.011  # 126
127 1.008  # 127
128 15.999  # 128
129 15.999  # 129
130 1.008  # 130
131 12.011  # 131
132 1.008  # 132
133 12.011  # 133
134 1.008  # 134
135 12.011  # 135
136 1.008  # 136
137 12.011  # 137
138 1.008  # 138
139 12.011  # 139
140 12.011  # 140
141 12.011  # 141
142 32.06  # 142
143 32.06  # 143
144 32.06  # 144
145 32.06  # 145
146 1.008  # 146
147 1.008  # 147
148 12.011  # 148
149 12.011  # 149
150 12.011  # 150
151 12.011  # 151
152 12.011  # 152
153 12.011  # 153
154 12.011  # 154
155 12.011  # 155
156 12.011  # 156
157 12.011  # 157
158 12.011  # 158
159 12.011  # 159
160 12.011  # 160
161 12.011  # 161
162 12.011  # 162
163 12.011  # 163
164 32.06  # 164
165 12.011  # 165
166 12.011  # 166
167 12.011  # 167
168 35.453  # 168
169 12.011  # 169
170 12.011  # 170
171 12.011  # 171
172 12.011  # 172
173 12.011  # 173
174 12.011  # 174
175 12.011  # 175
176 12.011  # 176
177 12.011  # 177
178 15.999  # 178
179 14.007  # 179
180 14.007  # 180
181 14.007  # 181
182 1.008  # 182
183 1.008  # 183
184 12.011  # 184
185 12.011  # 185
186 12.011  # 186
187 12.011  # 187
188 12.011  # 188
189 12.011  # 189
190 15.999  # 190
191 14.007  # 191
192 1.008  # 192
193 14.007  # 193
194 12.011  # 194
195 15.999  # 195
196 1.008  # 196
197 1.008  # 197
198 12.011  # 198
199 12.011  # 199
200 12.011  # 200
201 12.011  # 201
202 12.011  # 202
203 12.011  # 203
204 14.007  # 204
205 12.011  # 205
206 35.453  # 206
207 14.007  # 207
208 12.011  # 208
209 12.011  # 209
210 15.999  # 210
211 15.999  # 211
212 1.008  # 212
213 12.011  # 213
214 15.999  # 214
215 12.011  # 215
216 12.011  # 216
217 12.011  # 217
218 12.011  # 218
219 12.011  # 219
220 15.999  # 220
221 1.008  # 221
222 12.011  # 222
223 15.999  # 223
224 1.008  # 224
225 12.011  # 225
226 12.011  # 226
227 12.011  # 227
228 12.011  # 228
229 14.007  # 229
230 14.007  # 230
231 14.007  # 231
232 1.008  # 232
233 1.008  # 233
234 12.011  # 234
235 12.011  # 235
236 12.011  # 236
237 12.011  # 237
238 12.011  # 238
239 12.011  # 239
240 12.011  # 240
241 12.011  # 241
242 12.011  # 242
243 14.007  # 243
244 1.008  # 244
245 12.011  # 245
246 14.007  # 246
247 1.008  # 247
248 12.011  # 248
249 12.011  # 249
250 12.011  # 250
251 12.011  # 251
252 14.007  # 252
253 1.008  # 253
254 14.007  # 254
255 12.011  # 255
256 14.007  # 256
257 1.008  # 257
258 12.011  # 258
259 1.008  # 259
260 12.011  # 260
261 1.008  # 261
262 14.007  # 262
263 12.011  # 263
264 14.007  # 264
265 12.011  # 265
266 12.011  # 266
267 12.011  # 267
268 1.008  # 268
269 15.999  # 269
270 1.008  # 270
271 15.999  # 271
272 1.008  # 272
273 1.008  # 273
274 12.011  # 274
275 1.008  # 275
276 14.007  # 276
277 12.011  # 277
278 14.007  # 278
279 12.011  # 279
280 12.011  # 280
281 12.011  # 281
282 1.008  # 282
283 15.999  # 283
284 14.007  # 284
285 1.008  # 285
286 1.008  # 286
287 1.008  # 287
288 1.008  # 288
289 14.007  # 289
290 12.011  # 290
291 14.007  # 291
292 12.011  # 292
293 12.011  # 293
294 12.011  # 294
295 14.007  # 295
296 12.011  # 296
297 14.007  # 297
298 1.008  # 298
299 14.007  # 299
300 1.008  # 300
301 1.008  # 301
302 1.008  # 302
303 1.008  # 303
304 14.007  # 304
305 12.011  # 305
306 14.007  # 306
307 12.011  # 307
308 12.011  # 308
309 12.011  # 309
310 1.008  # 310
311 14.007  # 311
312 1.008  # 312
313 15.999  # 313
314 12.011  # 314
315 1.008  # 315
316 12.011  # 316
317 1.008  # 317
318 12.011  # 318
319 1.008  # 319
320 14.007  # 320
321 12.011  # 321
322 14.007  # 322
323 12.011  # 323
324 12.011  # 324
325 12.011  # 325
326 1.008  # 326
327 15.999  # 327
328 1.008  # 328
329 14.007  # 329
330 1.008  # 330
331 1.008  # 331
332 1.008  # 332
333 1.008  # 333
334 12.011  # 334
335 1.008  # 335
336 30.974  # 336
337 15.999  # 337
338 15.999  # 338
339 15.035  # 339
340 12.011  # 340
341 35.453  # 341
342 12.011  # 342
343 18.998  # 343
344 35.453  # 344
345 79.904  # 345
346 126.905  # 346
347 18.039  # 347
348 6.941  # 348
349 22.99  # 349
350 39.098  # 350
351 85.468  # 351
352 132.905  # 352
353 24.305  # 353
354 40.08  # 354
355 87.62  # 355
356 137.33  # 356
357 12.011  # 357
358 1.008  # 358
359 32.06  # 359
360 12.011  # 360
361 1.008  # 361
362 15.999  # 362
363 12.011  # 363
364 1.008  # 364
365 12.011  # 365
366 14.007  # 366
367 12.011  # 367
368 1.008  # 368
369 14.007  # 369
370 1.008  # 370
371 12.011  # 371
372 1.008  # 372
373 12.011  # 373
374 1.008  # 374
375 1e-30  # 375
376 15.999  # 376
377 1.008  # 377
378 238.029  # 378
379 15.999  # 379
380 15.999  # 380
381 30.974  # 381
382 15.999  # 382
383 15.999  # 383
384 12.011  # 384
385 1.008  # 385
386 30.974  # 386
387 15.999  # 387
388 15.999  # 388
389 12.011  # 389
390 1.008  # 390
391 30.974  # 391
392 15.999  # 392
393 15.999  # 393
394 12.011  # 394
395 1.008  # 395
396 12.011  # 396
397 1.008  # 397
398 12.011  # 398
399 12.011  # 399
400 1.008  # 400
401 12.011  # 401
402 12.011  # 402
403 1.008  # 403
404 12.011  # 404
405 12.011  # 405
406 12.011  # 406
407 15.999  # 407
408 15.999  # 408
409 12.011  # 409
410 1.008  # 410
411 12.011  # 411
412 12.011  # 412
413 12.011  # 413
414 15.999  # 414
415 32.06  # 415
416 15.999  # 416
417 12.011  # 417
418 1.008  # 418
419 14.007  # 419
420 1.008  # 420
421 14.007  # 421
422 1.008  # 422
423 12.011  # 423
424 1.008  # 424
425 12.011  # 425
426 1.008  # 426
427 12.011  # 427
428 1.008  # 428
429 12.011  # 429
430 12.011  # 430
431 12.011  # 431
432 12.011  # 432
433 12.011  # 433
434 32.06  # 434
435 15.999  # 435
436 32.06  # 436
437 32.06  # 437
438 15.999  # 438
439 12.011  # 439
440 12.011  # 440
441 12.011  # 441
442 12.011  # 442
443 12.011  # 443
444 14.007  # 444
445 1.008  # 445
446 12.011  # 446
447 12.011  # 447
448 12.011  # 448
449 12.011  # 449
450 12.011  # 450
451 12.011  # 451
452 14.007  # 452
453 14.007  # 453
454 1.008  # 454
455 12.011  # 455
456 12.011  # 456
457 12.011  # 457
458 12.011  # 458
459 12.011  # 459
460 12.011  # 460
461 14.007  # 461
462 12.011  # 462
463 12.011  # 463
464 12.011  # 464
465 1.008  # 465
466 1.008  # 466
467 1.008  # 467
468 14.007  # 468
469 12.011  # 469
470 1.008  # 470
471 14.007  # 471
472 12.011  # 472
473 12.011  # 473
474 12.011  # 474
475 1.008  # 475
476 1.008  # 476
477 1.008  # 477
478 14.007  # 478
479 12.011  # 479
480 12.011  # 480
481 1.008  # 481
482 1.008  # 482
483 14.007  # 483
484 12.011  # 484
485 12.011  # 485
486 1.008  # 486
487 1.008  # 487
488 1.008  # 488
489 14.007  # 489
490 14.007  # 490
491 12.011  # 491
492 12.011  # 492
493 12.011  # 493
494 1.008  # 494
495 1.008  # 495
496 1.008  # 496
497 1.008  # 497
498 14.007  # 498
499 12.011  # 499
500 14.007  # 500
501 12.011  # 501
502 12.011  # 502
503 1.008  # 503
504 1.008  # 504
505 1.008  # 505
506 1.008  # 506
507 15.999  # 507
508 12.011  # 508
509 12.011  # 509
510 1.008  # 510
511 1.008  # 511
512 15.999  # 512
513 12.011  # 513
514 14.007  # 514
515 12.011  # 515
516 12.011  # 516
517 1.008  # 517
518 1.008  # 518
519 1.008  # 519
520 15.999  # 520
521 14.007  # 521
522 12.011  # 522
523 12.011  # 523
524 12.011  # 524
525 1.008  # 525
526 1.008  # 526
527 1.008  # 527
528 14.007  # 528
529 12.011  # 529
530 12.011  # 530
531 12.011  # 531
532 12.011  # 532
533 12.011  # 533
534 12.011  # 534
535 12.011  # 535
536 12.011  # 536
537 1.008  # 537
538 1.008  # 538
539 1.008  # 539
540 1.008  # 540
541 1.008  # 541
542 1.008  # 542
543 1.008  # 543
544 14.007  # 544
545 12.011  # 545
546 12.011  # 546
547 12.011  # 547
548 12.011  # 548
549 12.011  # 549
550 12.011  # 550
551 12.011  # 551
552 12.011  # 552
553 12.011  # 553
554 1.008  # 554
555 1.008  # 555
556 1.008  # 556
557 1.008  # 557
558 1.008  # 558
559 1.008  # 559
560 1.008  # 560
561 14.007  # 561
562 12.011  # 562
563 14.007  # 563
564 12.011  # 564
565 12.011  # 565
566 12.011  # 566
567 14.007  # 567
568 12.011  # 568
569 14.007  # 569
570 1.008  # 570
571 1.008  # 571
572 1.008  # 572
573 1.008  # 573
574 32.06  # 574
575 12.011  # 575
576 14.007  # 576
577 12.011  # 577
578 12.011  # 578
579 1.008  # 579
580 1.008  # 580
581 1.008  # 581
582 14.007  # 582
583 12.011  # 583
584 1.008  # 584
585 12.011  # 585
586 12.011  # 586
587 14.007  # 587
588 12.011  # 588
589 12.011  # 589
590 12.011  # 590
591 12.011  # 591
592 12.011  # 592
593 12.011  # 593
594 1.008  # 594
595 1.008  # 595
596 1.008  # 596
597 1.008  # 597
598 14.007  # 598
599 12.011  # 599
600 14.007  # 600
601 12.011  # 601
602 12.011  # 602
603 12.011  # 603
604 1.008  # 604
605 1.008  # 605
606 1.008  # 606
607 1.008  # 607
608 12.011  # 608
609 12.011  # 609
610 12.011  # 610
611 12.011  # 611
612 12.011  # 612
613 12.011  # 613
614 12.011  # 614
615 12.011  # 615
616 12.011  # 616
617 12.011  # 617
618 12.011  # 618
619 12.011  # 619
620 12.011  # 620
621 12.011  # 621
622 12.011  # 622
623 32.06  # 623
624 1.008  # 624
625 12.011  # 625
626 12.011  # 626
627 14.007  # 627
628 12.011  # 628
629 12.011  # 629
630 12.011  # 630
631 12.011  # 631
632 12.011  # 632
633 12.011  # 633
634 12.011  # 634
635 12.011  # 635
636 12.011  # 636
637 32.06  # 637
638 227.0  # 638
639 232.038  # 639
640 243.0  # 640
641 12.011  # 641
642 12.011  # 642
643 1.008  # 643
644 138.906  # 644
645 144.24  # 645
646 151.96  # 646
647 157.25  # 647
648 173.04  # 648
649 12.011  # 649
650 35.453  # 650
651 1.008  # 651
652 12.011  # 652
653 12.011  # 653
654 12.011  # 654
655 12.011  # 655
656 1.008  # 656
657 12.011  # 657
658 1.008  # 658
659 12.011  # 659
660 18.998  # 660
661 12.011  # 661
662 18.998  # 662
663 79.904  # 663
664 14.027  # 664
665 12.011  # 665
666 12.011  # 666
667 18.998  # 667
668 12.011  # 668
669 18.998  # 669
670 12.011  # 670
671 79.904  # 671
672 12.011  # 672
673 126.905  # 673
674 12.011  # 674
675 32.06  # 675
676 12.011  # 676
677 12.011  # 677
678 12.011  # 678
679 12.011  # 679
680 12.011  # 680
681 1.008  # 681
682 1.008  # 682
683 12.011  # 683
684 14.007  # 684
685 1.008  # 685
686 1.008  # 686
687 1.008  # 687
688 12.011  # 688
689 12.011  # 689
690 14.007  # 690
691 14.007  # 691
692 14.007  # 692
693 12.011  # 693
694 14.007  # 694
695 12.011  # 695
696 12.011  # 696
697 12.011  # 697
698 12.011  # 698
699 12.011  # 699
700 1.008  # 700
701 14.007  # 701
702 15.999  # 702
703 12.011  # 703
704 1.008  # 704
705 12.011  # 705
706 12.011  # 706
707 12.011  # 707
708 14.007  # 708
709 12.011  # 709
710 12.011  # 710
711 14.007  # 711
712 15.999  # 712
713 12.011  # 713
714 15.999  # 714
715 12.011  # 715
716 12.011  # 716
717 12.011  # 717
718 1.008  # 718
719 1.008  # 719
720 1.008  # 720
721 15.999  # 721
722 30.974  # 722
723 12.011  # 723
724 12.011  # 724
725 1.008  # 725
726 30.974  # 726
727 18.998  # 727
728 14.007  # 728
729 15.999  # 729
730 14.007  # 730
731 14.007  # 731
732 14.007  # 732
733 12.011  # 733
734 12.011  # 734
735 12.011  # 735
736 12.011  # 736
737 12.011  # 737
738 12.011  # 738
739 1.008  # 739
740 1.008  # 740
741 1.008  # 741
742 12.011  # 742
743 12.011  # 743
744 12.011  # 744
745 12.011  # 745
746 12.011  # 746
747 12.011  # 747
748 12.011  # 748
749 12.011  # 749
750 12.011  # 750
751 12.011  # 751
752 12.011  # 752
753 12.011  # 753
754 12.011  # 754
755 12.011  # 755
756 1.008  # 756
757 12.011  # 757
758 12.011  # 758
759 12.011  # 759
760 1.008  # 760
761 12.011  # 761
762 12.011  # 762
763 12.011  # 763
764 15.999  # 764
765 1.008  # 765
766 14.007  # 766
767 14.007  # 767
768 14.007  # 768
769 12.011  # 769
770 14.007  # 770
771 1.008  # 771
772 12.011  # 772
773 12.011  # 773
774 12.011  # 774
775 12.011  # 775
776 12.011  # 776
777 12.011  # 777
778 12.011  # 778
779 12.011  # 779
780 1.008  # 780
781 12.011  # 781
782 12.011  # 782
783 14.007  # 783
784 15.999  # 784
785 1.008  # 785
786 18.998  # 786
787 12.011  # 787
788 1.008  # 788
789 12.011  # 789
790 12.011  # 790
791 12.011  # 791
792 12.011  # 792
793 12.011  # 793
794 12.011  # 794
795 18.998  # 795
796 12.011  # 796
797 1.008  # 797
798 12.011  # 798
799 12.011  # 799
800 35.453  # 800
801 12.011  # 801
802 1.008  # 802
803 12.011  # 803
804 12.011  # 804
805 79.904  # 805
806 12.011  # 806
807 1.008  # 807
808 12.011  # 808
809 12.011  # 809
810 18.998  # 810
811 35.453  # 811
812 79.904  # 812
813 12.011  # 813
814 15.999  # 814
815 12.011  # 815
816 18.998  # 816
817 14.007  # 817
818 12.011  # 818
819 12.011  # 819
820 12.011  # 820
821 12.011  # 821
822 15.999  # 822
823 14.007  # 823
824 1.008  # 824
825 15.999  # 825
826 1.008  # 826
827 12.011  # 827
828 12.011  # 828
829 12.011  # 829
830 12.011  # 830
831 12.011  # 831
832 12.011  # 832
833 12.011  # 833
834 1e-30  # 834
835 12.011  # 835
836 12.011  # 836
837 12.011  # 837
838 126.905  # 838
839 1.008  # 839
840 14.007  # 840
841 12.011  # 841
842 12.011  # 842
843 14.007  # 843
844 12.011  # 844
845 12.011  # 845
846 15.999  # 846
847 14.007  # 847
848 12.011  # 848
849 12.011  # 849
850 12.011  # 850
851 12.011  # 851
852 1.008  # 852
853 12.011  # 853
854 15.999  # 854
855 1.008  # 855
856 12.011  # 856
857 12.011  # 857
858 12.011  # 858
859 12.011  # 859
860 12.011  # 860
861 12.011  # 861
862 12.011  # 862
863 12.011  # 863
864 12.011  # 864
865 12.011  # 865
866 28.086  # 866
867 28.086  # 867
868 28.086  # 868
869 28.086  # 869
870 1.008  # 870
871 12.011  # 871
872 12.011  # 872
873 12.011  # 873
874 12.011  # 874
875 18.998  # 875
876 35.453  # 876
877 79.904  # 877
878 126.905  # 878
879 6.941  # 879
880 22.99  # 880
881 39.098  # 881
882 85.468  # 882
883 132.905  # 883
884 24.305  # 884
885 40.08  # 885
886 87.62  # 886
887 137.33  # 887
888 12.011  # 888
889 12.011  # 889
890 12.011  # 890
891 12.011  # 891
892 1.008  # 892
893 14.007  # 893
894 12.011  # 894
895 14.007  # 895
896 12.011  # 896
897 12.011  # 897
898 12.011  # 898
899 1.008  # 899
900 12.011  # 900
901 12.011  # 901
902 12.011  # 902
903 12.011  # 903
904 12.011  # 904
905 15.999  # 905
906 12.011  # 906

Atoms

1 1 80 0.08668133 26.009 22.669 11.485
2 1 82 0.060168 26.741 24.001 11.298
3 1 85 -0.0271067 25.649 22.375 12.481
4 1 85 -0.0271067 25.184 22.969 10.773
5 1 90 -0.0993792 28.109 23.902 11.863
6 1 85 -0.028333 26.814 24.228 10.245
7 1 90 -0.0993792 28.353 23.300 13.144
8 1 90 -0.0993792 29.617 22.828 13.480
9 1 90 -0.0993792 30.714 23.086 12.663
10 1 90 -0.0993792 30.555 23.867 11.502
11 1 90 -0.0993792 29.225 24.194 11.047
12 1 91 0.1118146 27.579 23.080 13.849
13 1 91 0.1118146 29.935 22.292 14.440
14 1 91 0.1118146 31.698 22.931 12.992
15 1 91 0.1118146 31.372 24.208 10.874
16 1 91 0.1118146 29.109 24.583 10.054
17 1 81 0.086689 25.858 25.103 11.901
18 1 82 0.060168 26.371 26.516 12.159
19 1 85 -0.04066 25.406 24.818 12.836
20 1 85 -0.04066 24.994 25.194 11.090
21 1 90 -0.0993792 27.166 26.580 13.451
22 1 85 -0.028333 27.087 26.675 11.326
23 1 90 -0.0993792 26.533 26.351 14.702
24 1 90 -0.0993792 27.219 26.524 15.932
25 1 90 -0.0993792 28.574 26.860 15.877
26 1 90 -0.0993792 29.324 26.897 14.664
27 1 90 -0.0993792 28.535 26.853 13.482
28 1 91 0.1118146 25.487 26.060 14.798
29 1 91 0.1118146 26.780 26.571 16.908
30 1 91 0.1118146 29.145 26.922 16.804
31 1 91 0.1118146 30.397 27.053 14.557
32 1 91 0.1118146 29.121 26.925 12.612
33 1 81 0.086689 25.243 27.555 12.179
34 1 82 0.060168 25.710 29.092 12.317
35 1 85 -0.04066 24.450 27.267 12.899
36 1 85 -0.04066 24.753 27.472 11.188
37 1 90 -0.0993792 24.489 29.986 12.540
38 1 85 -0.028333 26.280 29.213 13.295
39 1 90 -0.0993792 23.182 29.776 11.961
40 1 90 -0.0993792 22.136 30.666 12.321
41 1 90 -0.0993792 22.378 31.770 13.239
42 1 90 -0.0993792 23.702 31.951 13.696
43 1 90 -0.0993792 24.721 31.127 13.326
44 1 91 0.1118146 22.929 29.046 11.164
45 1 91 0.1118146 21.143 30.461 11.952
46 1 91 0.1118146 21.592 32.423 13.578
47 1 91 0.1118146 23.997 32.756 14.385
48 1 91 0.1118146 25.680 31.239 13.843
49 1 81 0.132576 26.616 29.564 11.148
50 1 82 -0.169911 25.974 29.730 9.737
51 1 85 -0.0399935 27.413 28.776 11.036
52 1 85 -0.0399935 27.083 30.469 11.367
53 1 462 0.591226 25.545 28.434 9.053
54 1 85 0.068824 25.043 30.245 9.904
55 1 463 -0.0731628 26.449 27.439 8.663
56 1 464 -0.0731628 25.941 26.176 8.259
57 1 463 -0.0731628 24.551 25.961 8.072
58 1 462 -0.0731628 23.760 27.094 8.400
59 1 461 -0.665345 24.192 28.243 8.913
60 1 466 0.103817 27.490 27.585 8.917
61 1 467 0.103817 26.615 25.342 8.045
62 1 466 0.103817 24.163 25.068 7.599
63 1 465 0.103817 22.702 27.163 8.099
64 1 81 -0.026915 26.817 30.534 8.709
65 1 82 -0.034565 27.019 32.076 9.057
66 1 85 0.047063 26.284 30.325 7.694
67 1 85 0.047063 27.757 30.044 8.554
68 1 462 0.264408 25.648 32.782 8.852
69 1 85 0.104325 27.363 32.233 10.093
70 1 463 -0.079517 25.020 32.667 7.638
71 1 464 -0.079517 23.831 33.359 7.401
72 1 463 -0.079517 23.332 34.158 8.406
73 1 462 -0.079517 24.021 34.256 9.620
74 1 461 0.029157 25.146 33.572 9.908
75 1 466 0.17104725 25.480 32.140 6.836
76 1 467 0.17104725 23.331 33.102 6.455
77 1 466 0.17104725 22.385 34.649 8.366
78 1 465 0.17104725 23.684 34.848 10.456
79 1 888 -0.261738 25.730 33.786 11.262
80 1 892 0.15502733 25.933 32.808 11.640
81 1 892 0.15502733 25.003 34.197 11.890
82 1 892 0.15502733 26.655 34.345 11.280
83 1 81 0.132576 28.143 32.860 8.320
84 1 82 -0.169911 29.604 32.359 8.450
85 1 85 -0.0399935 27.792 32.738 7.309
86 1 85 -0.0399935 28.164 33.948 8.399
87 1 462 0.591226 30.128 32.286 9.897
88 1 85 0.068824 29.637 31.290 8.149
89 1 463 -0.0731628 30.236 33.447 10.712
90 1 464 -0.0731628 30.627 33.292 12.040
91 1 463 -0.0731628 30.600 31.952 12.529
92 1 462 -0.0731628 30.479 30.883 11.713
93 1 461 -0.665345 30.119 31.015 10.435
94 1 466 0.103817 30.197 34.387 10.257
95 1 467 0.103817 30.659 34.182 12.641
96 1 466 0.103817 30.756 31.799 13.536
97 1 465 0.103817 30.531 29.869 12.193
98 1 81 -0.026915 30.528 33.123 7.475
99 1 82 -0.034565 31.522 32.198 6.784
100 1 85 0.047063 31.068 33.891 8.007
101 1 85 0.047063 29.921 33.708 6.796
102 1 462 0.264408 32.746 32.940 6.305
103 1 85 0.104325 31.688 31.425 7.517
104 1 463 -0.079517 32.604 33.828 5.204
105 1 464 -0.079517 33.721 34.567 4.698
106 1 463 -0.079517 34.947 34.270 5.283
107 1 462 -0.079517 35.043 33.472 6.462
108 1 461 0.029157 33.954 32.780 6.901
109 1 466 0.17104725 31.596 33.885 4.822
110 1 467 0.17104725 33.698 35.243 3.876
111 1 466 0.17104725 35.782 34.781 4.851
112 1 465 0.17104725 36.023 33.142 6.835
113 1 888 -0.261738 34.063 32.000 8.179
114 1 892 0.15502733 34.800 32.298 8.856
115 1 892 0.15502733 34.227 31.017 7.950
116 1 892 0.15502733 33.145 31.992 8.750
117 1 81 0.132576 30.847 31.485 5.523
118 1 82 -0.169911 31.396 30.082 5.140
119 1 85 -0.0399935 30.662 32.050 4.616
120 1 85 -0.0399935 29.801 31.270 5.878
121 1 462 0.591226 32.834 30.059 4.650
122 1 85 0.068824 31.403 29.429 6.012
123 1 463 -0.0731628 33.713 29.164 5.232
124 1 464 -0.0731628 35.089 29.270 4.980
125 1 463 -0.0731628 35.532 30.349 4.208
126 1 462 -0.0731628 34.566 31.076 3.488
127 1 461 -0.665345 33.276 31.069 3.824
128 1 466 0.103817 33.289 28.443 5.963
129 1 467 0.103817 35.721 28.645 5.463
130 1 466 0.103817 36.568 30.395 3.892
131 1 465 0.103817 34.868 31.848 2.723
132 1 81 -0.026915 30.541 29.328 4.068
133 1 81 -0.034565 30.761 27.823 4.029
134 1 85 0.047063 30.578 29.887 3.066
135 1 85 0.047063 29.491 29.431 4.340
136 1 462 0.264408 29.689 27.036 3.220
137 1 85 0.0521625 31.768 27.632 3.640
138 1 463 -0.079517 28.544 26.540 3.942
139 1 464 -0.079517 27.740 25.604 3.306
140 1 463 -0.079517 27.984 25.276 1.960
141 1 462 -0.079517 29.051 25.935 1.302
142 1 461 0.029157 29.890 26.804 1.903
143 1 466 0.17104725 28.495 26.848 4.982
144 1 467 0.17104725 26.973 25.076 3.892
145 1 466 0.17104725 27.387 24.524 1.496
146 1 465 0.17104725 29.178 25.701 0.264
147 1 888 -0.261738 30.998 27.357 1.130
148 1 892 0.15502733 30.654 27.669 0.098
149 1 892 0.15502733 31.750 26.605 0.779
150 1 892 0.15502733 31.399 28.257 1.629
151 1 85 -0.0271067 26.631 21.835 11.041
152 1 85 0.0521625 30.707 27.413 5.000
153 2 80 0.08668133 6.974 29.157 36.737
154 2 82 0.060168 6.255 28.037 35.979
155 2 85 -0.0271067 6.671 29.407 37.764
156 2 85 -0.0271067 7.969 28.624 36.671
157 2 90 -0.0993792 4.906 28.499 35.566
158 2 85 -0.028333 6.819 27.776 35.097
159 2 90 -0.0993792 4.046 29.212 36.470
160 2 90 -0.0993792 3.004 29.998 35.988
161 2 90 -0.0993792 2.656 29.973 34.641
162 2 90 -0.0993792 3.336 29.115 33.757
163 2 90 -0.0993792 4.536 28.445 34.205
164 2 91 0.1118146 4.218 29.273 37.522
165 2 91 0.1118146 2.280 30.647 36.590
166 2 91 0.1118146 1.754 30.384 34.294
167 2 91 0.1118146 3.056 28.951 32.720
168 2 91 0.1118146 5.166 27.986 33.467
169 2 81 0.086689 6.276 26.785 36.870
170 2 82 0.060168 5.417 25.560 36.583
171 2 85 -0.04066 6.078 27.002 37.906
172 2 85 -0.04066 7.409 26.441 36.778
173 2 90 -0.0993792 3.994 25.763 37.071
174 2 85 -0.028333 5.383 25.535 35.474
175 2 90 -0.0993792 3.718 25.899 38.458
176 2 90 -0.0993792 2.390 25.966 38.954
177 2 90 -0.0993792 1.348 25.971 38.023
178 2 90 -0.0993792 1.558 26.053 36.613
179 2 90 -0.0993792 2.901 25.837 36.204
180 2 91 0.1118146 4.494 25.929 39.223
181 2 91 0.1118146 2.082 25.866 39.975
182 2 91 0.1118146 0.323 26.104 38.370
183 2 91 0.1118146 0.799 26.160 35.839
184 2 91 0.1118146 3.006 25.864 35.158
185 2 81 0.086689 6.005 24.277 37.186
186 2 82 0.060168 5.228 22.911 36.822
187 2 85 -0.04066 6.197 24.400 38.272
188 2 85 -0.04066 7.016 24.183 36.741
189 2 90 -0.0993792 5.788 21.758 37.656
190 2 85 -0.028333 4.158 22.989 37.203
191 2 90 -0.0993792 7.168 21.610 38.056
192 2 90 -0.0993792 7.513 20.510 38.886
193 2 90 -0.0993792 6.503 19.553 39.314
194 2 90 -0.0993792 5.194 19.727 38.814
195 2 90 -0.0993792 4.862 20.755 37.984
196 2 91 0.1118146 8.026 22.210 37.686
197 2 91 0.1118146 8.527 20.445 39.250
198 2 91 0.1118146 6.722 18.746 39.992
199 2 91 0.1118146 4.358 19.058 39.065
200 2 91 0.1118146 3.800 20.911 37.766
201 2 81 0.132576 5.197 22.614 35.298
202 2 82 -0.169911 6.531 22.218 34.597
203 2 85 -0.0399935 4.856 23.565 34.803
204 2 85 -0.0399935 4.511 21.865 35.069
205 2 462 0.591226 7.573 23.329 34.489
206 2 85 0.068824 6.997 21.500 35.250
207 2 463 -0.0731628 7.377 24.492 33.737
208 2 464 -0.0731628 8.291 25.567 33.890
209 2 463 -0.0731628 9.485 25.424 34.644
210 2 462 -0.0731628 9.605 24.151 35.262
211 2 461 -0.665345 8.704 23.172 35.253
212 2 466 0.103817 6.413 24.620 33.262
213 2 467 0.103817 8.116 26.529 33.398
214 2 466 0.103817 10.271 26.166 34.626
215 2 465 0.103817 10.564 23.807 35.686
216 2 81 -0.026915 6.383 21.590 33.183
217 2 82 -0.034565 5.667 20.167 33.145
218 2 85 0.047063 7.467 21.606 32.759
219 2 85 0.047063 5.896 22.287 32.531
220 2 462 0.264408 6.652 19.135 33.766
221 2 85 0.104325 4.718 20.156 33.709
222 2 463 -0.079517 7.914 19.025 33.240
223 2 464 -0.079517 8.788 18.050 33.723
224 2 463 -0.079517 8.338 17.210 34.718
225 2 462 -0.079517 7.035 17.351 35.209
226 2 461 0.029157 6.174 18.305 34.804
227 2 466 0.17104725 8.202 19.603 32.395
228 2 467 0.17104725 9.816 18.125 33.338
229 2 466 0.17104725 8.954 16.500 35.225
230 2 465 0.17104725 6.620 16.741 35.996
231 2 888 -0.261738 4.834 18.316 35.454
232 2 892 0.15502733 4.663 19.332 35.730
233 2 892 0.15502733 4.880 17.774 36.346
234 2 892 0.15502733 4.014 18.003 34.822
235 2 81 0.132576 5.130 19.643 31.783
236 2 82 -0.169911 4.080 20.494 31.023
237 2 85 -0.0399935 6.060 19.620 31.238
238 2 85 -0.0399935 4.821 18.600 31.704
239 2 462 0.591226 2.791 20.774 31.816
240 2 85 0.068824 4.488 21.520 30.893
241 2 463 -0.0731628 1.932 19.722 32.240
242 2 464 -0.0731628 0.833 20.041 33.037
243 2 463 -0.0731628 0.841 21.357 33.584
244 2 462 -0.0731628 1.689 22.318 33.156
245 2 461 -0.665345 2.739 22.031 32.382
246 2 466 0.103817 2.040 18.777 31.806
247 2 467 0.103817 0.229 19.220 33.376
248 2 466 0.103817 0.120 21.600 34.279
249 2 465 0.103817 1.573 23.339 33.610
250 2 81 -0.026915 3.848 19.928 29.603
251 2 82 -0.034565 3.760 21.030 28.554
252 2 85 0.047063 2.939 19.347 29.585
253 2 85 0.047063 4.597 19.175 29.395
254 2 462 0.264408 2.995 20.586 27.332
255 2 85 0.104325 3.344 21.860 29.104
256 2 463 -0.079517 3.600 19.631 26.471
257 2 464 -0.079517 2.931 19.162 25.294
258 2 463 -0.079517 1.721 19.783 25.009
259 2 462 -0.079517 1.079 20.644 25.949
260 2 461 0.029157 1.759 21.071 27.051
261 2 466 0.17104725 4.576 19.308 26.803
262 2 467 0.17104725 3.320 18.457 24.598
263 2 466 0.17104725 1.264 19.471 24.094
264 2 465 0.17104725 0.192 21.225 25.660
265 2 888 -0.261738 1.040 21.922 28.056
266 2 892 0.15502733 -0.002 21.853 28.079
267 2 892 0.15502733 1.285 22.901 27.891
268 2 892 0.15502733 1.357 21.737 29.072
269 2 81 0.132576 5.220 21.484 28.090
270 2 82 -0.169911 5.372 22.956 27.613
271 2 85 -0.0399935 5.807 20.842 27.445
272 2 85 -0.0399935 5.815 21.455 29.045
273 2 462 0.591226 4.626 23.304 26.336
274 2 85 0.068824 4.958 23.638 28.354
275 2 463 -0.0731628 3.807 24.419 26.335
276 2 464 -0.0731628 2.928 24.641 25.264
277 2 463 -0.0731628 2.850 23.663 24.269
278 2 462 -0.0731628 3.859 22.682 24.236
279 2 461 -0.665345 4.599 22.391 25.306
280 2 466 0.103817 3.817 25.053 27.248
281 2 467 0.103817 2.293 25.427 25.312
282 2 466 0.103817 2.276 23.856 23.369
283 2 465 0.103817 3.949 21.967 23.369
284 2 81 -0.026915 6.854 23.417 27.412
285 2 81 -0.034565 7.053 24.926 27.418
286 2 85 0.047063 7.338 22.830 26.553
287 2 85 0.047063 7.434 23.073 28.269
288 2 462 0.264408 8.535 25.379 27.559
289 2 85 0.0521625 6.600 25.337 26.509
290 2 463 -0.079517 9.033 25.617 28.890
291 2 464 -0.079517 10.240 26.291 29.014
292 2 463 -0.079517 10.990 26.594 27.864
293 2 462 -0.079517 10.473 26.182 26.611
294 2 461 0.029157 9.276 25.580 26.446
295 2 466 0.17104725 8.338 25.364 29.687
296 2 467 0.17104725 10.552 26.645 30.007
297 2 466 0.17104725 11.893 27.149 27.967
298 2 465 0.17104725 11.090 26.383 25.760
299 2 888 -0.261738 8.826 25.274 25.091
300 2 892 0.15502733 9.666 24.832 24.477
301 2 892 0.15502733 8.661 26.168 24.436
302 2 892 0.15502733 8.011 24.530 25.120
303 2 85 -0.0271067 6.982 30.091 36.100
304 2 85 0.0521625 6.567 25.362 28.247
305 3 80 0.08668133 9.468 21.337 23.492
306 3 82 0.060168 10.785 21.903 22.953
307 3 85 -0.0271067 8.595 21.251 22.831
308 3 85 -0.0271067 9.947 20.345 23.749
309 3 90 -0.0993792 10.661 23.371 22.775
310 3 85 -0.028333 11.581 21.702 23.655
311 3 90 -0.0993792 9.502 23.961 22.164
312 3 90 -0.0993792 9.190 25.299 22.376
313 3 90 -0.0993792 10.083 26.145 23.030
314 3 90 -0.0993792 11.333 25.654 23.450
315 3 90 -0.0993792 11.584 24.233 23.409
316 3 91 0.1118146 8.770 23.398 21.625
317 3 91 0.1118146 8.281 25.878 21.990
318 3 91 0.1118146 9.970 27.188 23.013
319 3 91 0.1118146 12.127 26.268 23.863
320 3 91 0.1118146 12.436 23.852 23.940
321 3 81 0.086689 11.143 21.115 21.684
322 3 82 0.060168 12.226 21.572 20.713
323 3 85 -0.04066 10.292 20.925 21.051
324 3 85 -0.04066 11.503 20.077 22.136
325 3 90 -0.0993792 11.703 22.648 19.779
326 3 85 -0.028333 12.972 22.051 21.380
327 3 90 -0.0993792 10.681 22.355 18.837
328 3 90 -0.0993792 10.258 23.303 17.870
329 3 90 -0.0993792 10.830 24.577 17.917
330 3 90 -0.0993792 11.702 25.006 18.962
331 3 90 -0.0993792 12.179 23.960 19.798
332 3 91 0.1118146 10.182 21.387 18.778
333 3 91 0.1118146 9.652 23.111 17.007
334 3 91 0.1118146 10.468 25.349 17.237
335 3 91 0.1118146 12.104 26.007 19.116
336 3 91 0.1118146 12.850 24.312 20.528
337 3 81 0.086689 12.816 20.410 19.904
338 3 82 0.060168 14.057 20.783 18.944
339 3 85 -0.04066 12.017 19.837 19.390
340 3 85 -0.04066 13.215 19.701 20.658
341 3 90 -0.0993792 14.397 19.591 18.048
342 3 85 -0.028333 13.712 21.563 18.189
343 3 90 -0.0993792 14.294 18.201 18.432
344 3 90 -0.0993792 14.589 17.211 17.457
345 3 90 -0.0993792 14.994 17.587 16.110
346 3 90 -0.0993792 15.146 18.966 15.843
347 3 90 -0.0993792 14.906 19.922 16.782
348 3 91 0.1118146 14.114 17.816 19.457
349 3 91 0.1118146 14.433 16.176 17.719
350 3 91 0.1118146 15.163 16.861 15.333