LAMMPS Description

5480  atoms
4947  bonds
7854  angles
10302  dihedrals
408  impropers

90  atom types
840  bond types
4614  angle types
985  dihedral types
38  improper types

-0.5 45.5 xlo xhi
-0.5 45.5 ylo yhi
-0.5 45.5 zlo zhi

Masses

1 12.01
2 12.01
3 12.01
4 12.01
5 12.01
6 12.01
7 12.01
8 12.01
9 12.01
10 12.01
11 12.01
12 12.01
13 12.01
14 12.01
15 12.01
16 12.01
17 12.01
18 12.01
19 12.01
20 1.008
21 1.008
22 1.008
23 1.008
24 1.008
25 1.008
26 1.008
27 1.008
28 1.008
29 1.008
30 1.008
31 1.008
32 1.008
33 19.00
34 35.45
35 79.90
36 126.9
37 14.01
38 14.01
39 14.01
40 14.01
41 14.01
42 14.01
43 14.01
44 14.01
45 14.01
46 14.01
47 14.01
48 14.01
49 14.01
50 14.01
51 14.01
52 14.01
53 14.01
54 14.01
55 14.01
56 14.01
57 14.01
58 14.01
59 14.01
60 14.01
61 16.00
62 16.00
63 16.00
64 16.00
65 30.97
66 30.97
67 30.97
68 30.97
69 30.97
70 30.97
71 30.97
72 30.97
73 30.97
74 30.97
75 30.97
76 32.06
77 32.06
78 32.06
79 32.06
80 32.06
81 32.06
82 32.06
83 32.06
84 6.94
85 39.10
86 22.99
87 35.45
88 19.00
89 79.90
90 126.9

Atoms

1 1 5 -0.326742 40.372050 41.789436 38.862446
2 1 5 0.017198 41.069896 40.518137 38.374999
3 1 1 0.394188 41.255280 40.508830 36.861867
4 1 61 -0.513516 40.795143 39.597844 36.192698
5 1 37 -0.318253 42.042051 41.477535 36.288459
6 1 5 0.253336 42.436758 41.565745 34.872862
7 1 5 -0.153575 43.199435 40.285305 34.463944
8 1 5 -0.153575 41.190821 41.735187 33.993861
9 1 5 -0.10529 43.366799 42.813139 34.717156
10 1 79 1.173264 44.034991 43.206932 33.050793
11 1 61 -0.685611 42.766697 43.551836 31.946569
12 1 61 -0.685611 45.000691 44.613383 33.238766
13 1 61 -0.685611 45.024923 41.931050 32.468863
14 1 5 0.006838 40.552380 39.174471 39.004355
15 1 5 0.040646 39.063880 38.773299 39.413994
16 1 5 -0.027518 38.613471 39.678574 40.588336
17 1 1 0.395206 38.012690 38.939626 38.308970
18 1 61 -0.468954 36.853965 38.660481 38.586682
19 1 63 -0.174507 38.276951 39.490708 37.084934
20 1 5 0.150236 37.238248 39.941714 36.271884
21 1 5 -0.054794 37.697804 40.590710 34.955859
22 1 5 0.144718 38.203207 39.596522 33.903294
23 1 63 -0.399142 38.506157 40.303914 32.705503
24 1 5 0.122665 39.059296 39.408891 31.761736
25 1 5 -0.104134 39.310549 40.087875 30.411424
26 1 63 -0.337202 39.757787 39.189356 29.442687
27 1 1 0.759957 40.960955 38.536384 29.407225
28 1 61 -0.581204 41.771229 38.723958 30.301405
29 1 5 0.062457 41.356841 37.682301 28.181312
30 1 5 -0.076044 40.210140 37.768403 27.139318
31 1 5 -0.076044 42.592312 38.334371 27.528194
32 1 5 0.066126 39.204419 37.254205 39.904125
33 1 5 0.074152 38.129058 36.255714 40.538352
34 1 5 0.020526 37.630578 36.841382 41.897639
35 1 1 0.077412 36.901624 36.060225 39.606388
36 1 61 -0.371263 35.805193 36.405281 40.025357
37 1 63 -0.111764 36.903236 35.572503 38.338075
38 1 5 -0.066862 37.914930 35.041006 37.582706
39 1 5 -0.053241 38.111320 35.882598 36.335393
40 1 5 0.028072 39.192408 35.281429 35.457849
41 1 63 -0.278632 39.340808 36.093744 34.329861
42 1 5 -0.042452 40.132376 35.424799 33.382294
43 1 5 0.011714 40.572745 36.449632 32.379694
44 1 63 -0.084543 41.165897 35.839459 31.316900
45 1 1 -0.009992 42.396138 36.057628 30.803846
46 1 61 -0.354227 43.241735 36.708580 31.403469
47 1 5 0.016227 42.633409 35.469843 29.442265
48 1 5 0.078568 41.560246 36.126151 28.469439
49 1 5 0.027761 44.065092 35.679141 28.898854
50 1 5 0.046561 38.924236 34.905355 40.918673
51 1 5 0.107984 38.262314 33.465060 41.114900
52 1 5 -0.029328 36.885196 33.611149 41.802589
53 1 1 0.014276 38.123981 32.810144 39.731625
54 1 61 -0.371205 37.004187 32.521465 39.335295
55 1 63 -0.238097 39.170190 32.481610 38.901022
56 1 5 -0.000365 40.562174 32.575394 38.977840
57 1 5 0.007958 41.118548 33.241131 37.731726
58 1 5 0.014704 42.647664 33.104567 37.635310
59 1 63 -0.388664 43.179410 33.813173 36.530064
60 1 5 0.113896 42.869349 33.154625 35.318876
61 1 5 -0.00626 43.629443 33.803433 34.173089
62 1 63 -0.029346 43.200406 33.233045 32.994136
63 1 1 0.593203 43.652163 33.557288 31.755324
64 1 61 -0.558975 44.584218 34.340159 31.652023
65 1 5 0.123196 43.050558 32.885191 30.503087
66 1 5 -0.021611 42.295993 33.921804 29.545683
67 1 5 -0.052628 44.213406 32.217800 29.744332
68 1 5 -0.009258 39.186851 32.553119 42.035376
69 1 5 0.137918 38.905565 31.049074 42.424903
70 1 5 -0.044654 37.706205 30.937815 43.424710
71 1 1 0.501095 38.589768 30.157117 41.201537
72 1 61 -0.567231 37.502940 29.592580 41.149393
73 1 63 0.013794 39.476656 29.957937 40.186079
74 1 5 -0.104029 39.341543 28.968034 39.209945
75 1 5 0.006748 39.106423 29.564732 37.811353
76 1 5 0.071664 39.004783 28.464898 36.745119
77 1 63 -0.384397 38.619517 29.006887 35.493103
78 1 5 0.125944 39.731217 29.237947 34.649014
79 1 5 0.015801 39.210388 29.597995 33.258237
80 1 63 -0.132493 40.253651 29.863461 32.387365
81 1 1 0.696583 40.063984 30.250128 31.092838
82 1 61 -0.599874 38.923704 30.332403 30.650566
83 1 5 0.067838 41.263560 30.687469 30.231047
84 1 5 0.005441 42.013673 31.802537 31.053156
85 1 5 -0.063474 40.730091 31.253273 28.890857
86 1 5 -0.061231 40.121557 30.440072 43.251504
87 1 5 0.093328 41.662515 30.692372 43.015206
88 1 5 -0.063451 42.423056 29.710629 43.942801
89 1 1 0.648761 42.155347 30.415777 41.601739
90 1 61 -0.524796 42.767915 31.283577 40.996366
91 1 63 -0.344027 42.037710 29.165045 41.078824
92 1 5 -0.137957 42.916326 28.559154 40.188407
93 1 5 0.086443 43.088529 29.293244 38.844160
94 1 5 0.173524 44.037868 28.514586 37.926642
95 1 63 -0.408589 44.307541 29.234962 36.737080
96 1 5 0.086776 43.373998 28.938470 35.716246
97 1 5 0.133865 44.026217 29.224717 34.366336
98 1 63 -0.452331 43.161590 28.901314 33.338664
99 1 1 0.777226 43.503028 28.964350 32.024537
100 1 61 -0.560457 44.601952 29.382291 31.686818
101 1 5 0.026178 42.554529 28.418027 30.988605
102 1 5 -0.005638 42.138422 29.428716 29.875868
103 1 5 -0.105595 43.211757 27.189093 30.340151
104 1 5 -0.063451 42.088485 32.118851 43.481435
105 1 26 0.095459 40.875331 42.699196 38.477138
106 1 26 0.095459 40.420466 41.850425 39.969271
107 1 26 0.095459 39.321843 41.812412 38.503490
108 1 26 0.032263 42.126857 40.574300 38.724960
109 1 27 0.206195 42.428986 42.190909 36.925445
110 1 26 0.04376 44.112763 40.164382 35.084575
111 1 26 0.04376 43.487774 40.312906 33.396297
112 1 26 0.04376 42.578593 39.375562 34.582240
113 1 26 0.04376 41.449548 41.774901 32.919014
114 1 26 0.04376 40.631118 42.652991 34.274068
115 1 26 0.04376 40.532459 40.867154 34.113822
116 1 20 0.008208 42.818315 43.717564 35.059370
117 1 20 0.008208 44.243700 42.696741 35.390281
118 1 26 0.015381 40.998962 38.368153 38.381583
119 1 26 0.015381 41.107708 39.109890 39.968763
120 1 26 0.010954 38.548201 40.737791 40.302637
121 1 26 0.010954 39.294798 39.582515 41.460535
122 1 26 0.010954 37.583191 39.472310 40.906298
123 1 20 0.028447 36.691581 40.728415 36.838823
124 1 20 0.028447 36.523369 39.118433 36.048696
125 1 26 0.037765 38.455189 41.372842 35.173569
126 1 26 0.037765 36.810583 41.091917 34.509680
127 1 20 0.010085 37.392285 38.857222 33.711607
128 1 20 0.010085 39.095418 39.068985 34.306742
129 1 20 0.064583 40.041819 39.063091 32.134652
130 1 20 0.064583 38.339918 38.581927 31.565855
131 1 20 0.134171 38.345445 40.509856 30.059426
132 1 20 0.134171 40.033423 40.925513 30.521266
133 1 26 0.013105 40.006531 38.823053 26.850732
134 1 26 0.013105 39.269700 37.338392 27.547778
135 1 26 0.013105 40.469057 37.211939 26.212156
136 1 26 0.013105 42.350454 39.366343 27.191525
137 1 26 0.013105 42.930766 37.752180 26.644230
138 1 26 0.013105 43.424916 38.456971 28.240200
139 1 26 -0.014706 39.619618 36.732723 39.023948
140 1 26 -0.014706 40.024246 37.265695 40.658213
141 1 26 0.002529 37.000654 37.732050 41.780001
142 1 26 0.002529 38.481240 37.094843 42.566211
143 1 26 0.002529 36.979417 36.140765 42.444910
144 1 20 0.12772 37.618550 34.016982 37.274241
145 1 20 0.12772 38.845351 34.974081 38.147335
146 1 26 0.055769 38.410047 36.909679 36.618661
147 1 26 0.055769 37.156645 35.928644 35.766343
148 1 20 0.052675 38.882750 34.244321 35.182191
149 1 20 0.052675 40.148954 35.279364 36.012106
150 1 20 0.071529 41.047898 34.980269 33.820902
151 1 20 0.071529 39.522278 34.646411 32.869165
152 1 20 0.101738 39.652357 36.901145 31.987684
153 1 20 0.101738 41.226189 37.214340 32.855509
154 1 26 -0.009983 40.561588 35.785704 28.825837
155 1 26 -0.009983 41.714302 35.632996 27.483064
156 1 26 0.014273 44.362702 36.734773 28.889291
157 1 26 0.014273 44.148247 35.268022 27.870413
158 1 26 0.014273 44.834428 35.188068 29.509757
159 1 26 0.024055 39.732121 34.780214 40.186841
160 1 26 0.024055 39.495293 35.144994 41.842991
161 1 26 0.035106 36.213093 34.293078 41.263515
162 1 26 0.035106 36.991416 33.951868 42.853771
163 1 26 0.035106 36.316848 32.674595 41.769045
164 1 20 0.057745 40.967439 31.548680 39.017000
165 1 20 0.057745 40.968465 33.124887 39.834518
166 1 26 0.057193 40.875051 34.314575 37.774376
167 1 26 0.057193 40.640753 32.761168 36.853547
168 1 20 0.094052 42.954601 32.036724 37.612934
169 1 20 0.094052 43.100380 33.537963 38.552577
170 1 20 0.027996 43.146150 32.077732 35.347747
171 1 20 0.027996 41.790207 33.260033 35.091162
172 1 20 0.082244 43.414732 34.894439 34.151619
173 1 20 0.082244 44.722158 33.648485 34.309032
174 1 26 0.012596 41.237907 33.911182 29.877158
175 1 26 0.012596 42.273458 33.511299 28.518043
176 1 26 0.009764 44.967127 32.959261 29.416838
177 1 26 0.009764 43.853696 31.713429 28.827572
178 1 26 0.009764 44.732140 31.480847 30.386327
179 1 26 -0.030336 40.145334 32.500833 41.543160
180 1 26 -0.030336 39.345620 33.101050 42.990282
181 1 26 0.006044 36.716200 31.142379 43.004050
182 1 26 0.006044 37.854117 31.603091 44.302873
183 1 26 0.006044 37.619006 29.895124 43.803600
184 1 20 0.074579 38.497426 28.280677 39.437718
185 1 20 0.074579 40.255155 28.344001 39.207495
186 1 26 0.088143 39.935749 30.238821 37.525345
187 1 26 0.088143 38.158348 30.144450 37.830417
188 1 20 0.053129 38.211248 27.746713 37.042602
189 1 20 0.053129 39.949644 27.873460 36.703299
190 1 20 -0.016681 40.328310 30.093093 35.034238
191 1 20 -0.016681 40.362836 28.326290 34.542924
192 1 20 0.067194 38.601249 28.754409 32.864648
193 1 20 0.067194 38.565368 30.500691 33.345273
194 1 26 -0.197517 42.485260 31.257268 31.890105
195 1 26 -0.197517 41.220877 32.424973 31.531482
196 1 26 0.015232 40.080703 32.138520 29.053045
197 1 26 0.015232 40.118473 30.493748 28.356644
198 1 26 0.015232 41.560141 31.506539 28.205580
199 1 26 0.019378 39.997080 30.761556 44.311403
200 1 26 0.019378 39.945006 29.339842 43.263647
201 1 26 0.019315 42.187532 28.654251 43.688142
202 1 26 0.019315 42.149827 29.871822 45.008570
203 1 26 0.019315 43.523616 29.842334 43.847608
204 1 20 0.115089 42.533766 27.535910 39.987552
205 1 20 0.115089 43.908366 28.458251 40.680892
206 1 26 -0.023095 43.536419 30.290269 39.007740
207 1 26 -0.023095 42.110704 29.412652 38.339899
208 1 20 0.027059 43.661970 27.481825 37.743025
209 1 20 0.027059 45.009039 28.381571 38.449745
210 1 20 0.046328 43.079048 27.863763 35.700433
211 1 20 0.046328 42.473597 29.574688 35.839024
212 1 20 0.064048 44.317823 30.294752 34.296522
213 1 20 0.064048 44.941466 28.597071 34.282950
214 1 26 -0.01262 41.642535 28.045102 31.499244
215 1 26 0.011913 41.517773 28.819677 29.179608
216 1 26 0.011913 43.035585 29.730595 29.303556
217 1 26 0.029918 44.138772 27.474207 29.796898
218 1 26 0.029918 42.514344 26.708762 29.620877
219 1 26 0.029918 43.469863 26.436327 31.116326
220 1 26 0.019315 43.195104 32.222504 43.440856
221 1 26 0.019315 41.779034 32.299261 44.533403
222 1 26 0.019315 41.696061 32.946228 42.870350
223 2 5 -0.326742 29.873320 41.988492 36.726602
224 2 5 0.017198 30.754848 40.746994 36.576977
225 2 1 0.394188 31.580066 40.779542 35.295581
226 2 61 -0.513516 31.486811 39.874397 34.482300
227 2 37 -0.318253 32.505787 41.780988 35.133286
228 2 5 0.253336 33.473764 41.913690 34.031968
229 2 5 -0.153575 34.379775 40.662700 33.981155
230 2 5 -0.153575 32.729333 42.074347 32.700155
231 2 5 -0.10529 34.337634 43.186845 34.311282
232 2 79 1.173264 35.650789 43.637800 33.106879
233 2 61 -0.685611 34.978458 43.978824 31.564636
234 2 61 -0.685611 36.392076 45.062307 33.712922
235 2 61 -0.685611 36.836399 42.401172 32.999347
236 2 5 0.006838 30.059344 39.375995 36.902534
237 2 5 0.040646 28.554831 38.928676 36.618419
238 2 5 -0.027518 27.609185 39.793455 37.489844
239 2 1 0.395206 28.084053 39.096541 35.167926
240 2 61 -0.468954 26.929685 38.782468 34.910081
241 2 63 -0.174507 28.836202 39.683931 34.187602
242 2 5 0.150236 28.240369 40.129405 33.008663
243 2 5 -0.054794 29.205066 40.821681 32.031717
244 2 5 0.144718 30.150142 39.866378 31.292824
245 2 63 -0.399142 30.920583 40.610279 30.354785
246 2 5 0.122665 31.858056 39.752561 29.735762
247 2 5 -0.104134 32.649239 40.470575 28.637593
248 2 63 -0.337202 33.502389 39.607397 27.949937
249 2 1 0.759957 34.621855 38.985021 28.434380
250 2 61 -0.581204 34.955973 39.170173 29.594281
251 2 5 0.062457 35.539193 38.171346 27.493386
252 2 5 -0.076044 34.957675 38.255152 26.057105
253 2 5 -0.076044 36.913705 38.869252 27.451063
254 2 5 0.066126 28.517782 37.401829 37.103181
255 2 5 0.074152 27.306887 36.362079 37.194203
256 2 5 0.020526 26.247994 36.901710 38.207463
257 2 1 0.077412 26.614069 36.159781 35.818542
258 2 61 -0.371263 25.433922 36.467567 35.722214
259 2 63 -0.111764 27.183076 35.703683 34.671939
260 2 5 -0.066862 28.439371 35.215801 34.426400
261 2 5 -0.053241 29.131074 36.092446 33.398939
262 2 5 0.028072 30.505228 35.539640 33.072837
263 2 63 -0.278632 31.102805 36.382913 32.131546
264 2 5 -0.042452 32.249098 35.757043 31.615553
265 2 5 0.011714 33.047931 36.816728 30.916734
266 2 63 -0.084543 34.063868 36.247601 30.211300
267 2 1 -0.009992 35.386939 36.508283 30.287742
268 2 61 -0.354227 35.865806 37.164662 31.203260
269 2 5 0.016227 36.211844 35.960227 29.158646
270 2 5 0.078568 35.647782 36.613982 27.823263
271 2 5 0.027761 37.729680 36.217704 29.295381
272 2 5 0.046561 27.901175 35.022532 37.867151
273 2 5 0.107984 27.267259 33.562129 37.738831
274 2 5 -0.029328 25.724160 33.657596 37.759849
275 2 1 0.014276 27.765798 32.938361 36.425866
276 2 61 -0.371205 26.939929 32.632338 35.578138
277 2 63 -0.238097 29.079239 32.656019 36.129992
278 2 5 -0.000365 30.295377 32.781781 36.806387
279 2 5 0.007958 31.316245 33.491422 35.934725
280 2 5 0.014704 32.738656 33.394592 36.512230
281 2 63 -0.388664 33.674695 34.143000 35.757141
282 2 5 0.113896 33.943973 33.507172 34.524253
283 2 5 -0.00626 35.105084 34.202384 33.831416
284 2 63 -0.029346 35.250397 33.650968 32.576756
285 2 1 0.593203 36.185109 34.016590 31.662149
286 2 61 -0.558975 37.043183 34.824257 31.984123
287 2 5 0.123196 36.210331 33.361126 30.265198
288 2 5 -0.021611 35.913829 34.402343 29.086846
289 2 5 -0.052628 37.608560 32.741201 30.080857
290 2 5 -0.009258 27.728700 32.650563 38.959405
291 2 5 0.137918 27.355323 31.130956 39.170095
292 2 5 -0.044654 25.844849 30.965863 39.546481
293 2 1 0.501095 27.632365 30.262020 37.921040
294 2 61 -0.567231 26.695485 29.672617 37.394280
295 2 63 0.013794 28.878607 30.109630 37.390894
296 2 5 -0.104029 29.213918 29.141112 36.441927
297 2 5 0.006748 29.591112 29.766224 35.087545
298 2 5 0.071664 29.999323 28.690879 34.070777
299 2 63 -0.384397 30.179445 29.254039 32.782315
300 2 5 0.125944 31.539396 29.532883 32.509312
301 2 5 0.015801 31.663824 29.914331 31.034804
302 2 63 -0.132493 32.972715 30.226552 30.708289
303 2 1 0.696583 33.352416 30.640300 29.464937
304 2 61 -0.599874 32.515970 30.705643 28.571236
305 2 5 0.067838 34.792402 31.127880 29.216659
306 2 5 0.005441 35.073413 32.240278 30.296247
307 2 5 -0.063474 34.876729 31.713403 27.784568
308 2 5 -0.061231 28.109963 30.531568 40.436602
309 2 5 0.093328 29.591159 30.827107 40.897863
310 2 5 -0.063451 29.904208 29.841609 42.052621
311 2 1 0.648761 30.658432 30.597563 39.836960
312 2 61 -0.524796 31.444593 31.494708 39.568863
313 2 63 -0.344027 30.820879 29.357617 39.300534
314 2 5 -0.137957 32.018588 28.795474 38.874620
315 2 5 0.086443 32.734197 29.566484 37.748126
316 2 5 0.173524 34.012980 28.834071 37.326612
317 2 63 -0.408589 34.749473 29.589935 36.381639
318 2 5 0.086776 34.363072 29.296050 35.052791
319 2 5 0.133865 35.527736 29.631327 34.125034
320 2 63 -0.452331 35.207205 29.312396 32.819729
321 2 1 0.777226 36.083937 29.416138 31.786258
322 2 61 -0.560457 37.206053 29.868946 31.965657
323 2 5 0.026178 35.698810 28.872580 30.434409
324 2 5 -0.005638 35.775285 29.899971 29.263323
325 2 5 -0.105595 36.612426 27.676405 30.122660
326 2 5 -0.063451 29.725082 32.251609 41.519572
327 2 26 0.095459 30.464054 42.919479 36.609488
328 2 26 0.095459 29.433514 42.023318 37.744680
329 2 26 0.095459 29.083632 41.994711 35.946433
330 2 26 0.032263 31.551940 40.820253 37.352909
331 2 27 0.206195 32.553626 42.487649 35.883428
332 2 26 0.04376 34.935683 40.548801 34.936125
333 2 26 0.04376 35.102684 40.723652 33.146015
334 2 26 0.04376 33.799380 39.735452 33.806730
335 2 26 0.04376 33.428329 42.146860 31.845780
336 2 26 0.04376 32.073804 42.971042 32.719294
337 2 26 0.04376 32.113087 41.187828 32.511374
338 2 20 0.008208 33.665670 44.068914 34.390964
339 2 20 0.008208 34.837784 43.075286 35.297692
340 2 26 0.015381 30.758423 38.596412 36.527076
341 2 26 0.015381 30.141741 39.301196 38.011704
342 2 26 0.010954 27.640087 40.857492 37.216541
343 2 26 0.010954 27.846098 39.692544 38.570517
344 2 26 0.010954 26.550516 39.554357 37.325008
345 2 20 0.028447 27.476150 40.888321 33.290053
346 2 20 0.028447 27.721045 39.294701 32.486910
347 2 26 0.037765 29.766368 41.616433 32.566571
348 2 26 0.037765 28.584349 41.311967 31.249557
349 2 20 0.010085 29.527946 39.112486 30.758577
350 2 20 0.010085 30.794795 39.350952 32.038388
351 2 20 0.064583 32.591318 39.421719 30.495279
352 2 20 0.064583 31.322927 38.913392 29.236588
353 2 20 0.134171 31.920064 40.877461 27.905374
354 2 20 0.134171 33.224585 41.322619 29.060967
355 2 26 0.013105 34.865494 39.311324 25.720909
356 2 26 0.013105 33.947803 37.792399 26.010256
357 2 26 0.013105 35.612098 37.728207 25.328833
358 2 26 0.013105 36.808758 39.903014 27.054666
359 2 26 0.013105 37.621754 38.317469 26.796011
360 2 26 0.013105 37.349272 38.994508 28.455953
361 2 26 -0.014706 29.291260 36.912496 36.485662
362 2 26 -0.014706 28.927180 37.414692 38.139098
363 2 26 0.002529 25.703193 37.779389 37.837595
364 2 26 0.002529 26.714423 37.159259 39.182638
365 2 26 0.002529 25.446910 36.172140 38.408394
366 2 20 0.12772 28.340294 34.192779 34.007801
367 2 20 0.12772 29.033254 35.157666 35.339030
368 2 26 0.055769 29.243122 37.119203 33.795915
369 2 26 0.055769 28.517971 36.129233 32.471525
370 2 20 0.052675 30.380361 34.502409 32.677833
371 2 20 0.052675 31.125011 35.547219 33.988259
372 2 20 0.071529 32.896723 35.324275 32.403879
373 2 20 0.071529 31.948697 34.976911 30.878964
374 2 20 0.101738 32.375432 37.255205 30.168314
375 2 20 0.101738 33.404013 37.585165 31.638452
376 2 26 -0.009983 34.605236 36.240604 27.705239
377 2 26 -0.009983 36.231526 36.149213 26.996762
378 2 26 0.014273 37.967148 37.280190 29.428617
379 2 26 0.014273 38.265236 35.834231 28.401092
380 2 26 0.014273 38.172342 35.730608 30.174597
381 2 26 0.024055 28.950549 34.935214 37.558761
382 2 26 0.024055 28.005218 35.253144 38.950613
383 2 26 0.035106 25.331516 34.336031 36.989844
384 2 26 0.035106 25.351428 33.974765 38.756257
385 2 26 0.035106 25.257917 32.708579 37.471295
386 2 20 0.057745 30.676591 31.764596 37.006205
387 2 20 0.057745 30.270440 33.319712 37.760808
388 2 26 0.057193 31.043494 34.557233 35.879532
389 2 26 0.057193 31.283914 33.021766 34.930618
390 2 20 0.094052 33.059494 32.335425 36.613363
391 2 20 0.094052 32.732941 33.816132 37.540060
392 2 20 0.027996 34.215701 32.436961 34.658287
393 2 20 0.027996 33.068472 33.591830 33.850575
394 2 20 0.082244 34.885549 35.288030 33.731245
395 2 20 0.082244 36.034331 34.070811 34.427825
396 2 26 0.012596 34.817865 34.357758 28.924335
397 2 26 0.012596 36.353909 34.016888 28.147262
398 2 26 0.009764 38.405015 33.508668 30.122890
399 2 26 0.009764 37.700068 32.250983 29.093162
400 2 26 0.009764 37.820226 32.001497 30.876080
401 2 26 -0.030336 28.806999 32.633815 38.933126
402 2 26 -0.030336 27.438356 33.178476 39.894440
403 2 26 0.006044 25.130235 31.156551 38.739093
404 2 26 0.006044 25.574275 31.612679 40.409071
405 2 26 0.006044 25.635673 29.912326 39.837465
406 2 20 0.074579 28.377720 28.427973 36.271395
407 2 20 0.074579 30.057516 28.539784 36.830329
408 2 26 0.088143 30.439761 30.467179 35.199062
409 2 26 0.088143 28.710724 30.322013 34.698575
410 2 20 0.053129 29.179333 27.946444 33.984663
411 2 20 0.053129 30.887100 28.123860 34.437727
412 2 20 -0.016681 31.881213 30.392564 33.125996
413 2 20 -0.016681 32.183712 28.639787 32.678290
414 2 20 0.067194 31.314427 29.066114 30.405478
415 2 20 0.067194 31.016029 30.798614 30.842735
416 2 26 -0.197517 35.151598 31.686184 31.248646
417 2 26 -0.197517 34.131617 32.831214 30.388788
418 2 26 0.015232 34.192888 32.578287 27.658042
419 2 26 0.015232 34.583514 30.952606 27.028559
420 2 26 0.015232 35.913434 32.003656 27.532125
421 2 26 0.019378 27.526470 30.823675 41.340173
422 2 26 0.019378 27.981769 29.427396 40.357888
423 2 26 0.019315 29.837549 28.786408 41.708579
424 2 26 0.019315 29.189543 29.969751 42.894841
425 2 26 0.019315 30.931672 30.002410 42.447718
426 2 20 0.115089 31.795132 27.768476 38.515364
427 2 20 0.115089 32.700407 28.706663 39.748750
428 2 26 -0.023095 33.033511 30.569791 38.101975
429 2 26 -0.023095 32.069686 29.674426 36.869801
430 2 20 0.027059 33.788333 27.797298 36.985662
431 2 20 0.027059 34.663753 28.711903 38.218841
432 2 20 0.046328 34.139658 28.215191 34.897651
433 2 20 0.046328 33.478631 29.906909 34.778593
434 2 20 0.064048 35.785535 30.709548 34.201589
435 2 20 0.064048 36.408127 29.028425 34.441255
436 2 26 -0.01262 34.668231 28.465053 30.492583
437 2 26 0.011913 35.539502 29.293348 28.359262
438 2 26 0.011913 36.821663 30.237657 29.142352
439 2 26 0.029918 37.673578 27.997346 30.040651
440 2 26 0.029918 36.313369 27.197108 29.165948
441 2 26 0.029918 36.531719 26.911233 30.924983
442 2 26 0.019315 30.735163 32.383175 41.966141
443 2 26 0.019315 28.983196 32.398414 42.333818
444 2 26 0.019315 29.610680 33.083999 40.808225
445 3 5 -0.326742 30.313775 31.368128 24.330085
446 3 5 0.017198 29.069460 32.231098 24.548621
447 3 1 0.394188 29.266808 33.659352 24.053479
448 3 61 -0.513516 29.118270 34.599734 24.817041
449 3 37 -0.318253 29.499609 33.866790 22.715956
450 3 5 0.253336 29.595021 35.166600 22.031208
451 3 5 -0.153575 28.281780 35.957061 22.228652
452 3 5 -0.153575 30.776544 35.966981 22.594330
453 3 5 -0.10529 29.824561 34.885151 20.510251
454 3 79 1.173264 29.991097 36.315872 19.368487
455 3 61 -0.685611 31.357023 37.271859 19.777357
456 3 61 -0.685611 30.227869 35.656923 17.801408
457 3 61 -0.685611 28.559896 37.263526 19.358629
458 3 5 0.006838 28.381204 32.088255 25.954058
459 3 5 0.040646 29.061280 31.863837 27.379367
460 3 5 -0.027518 29.732415 30.467097 27.392306
461 3 1 0.395206 30.154089 32.874667 27.750491
462 3 61 -0.468954 30.715070 32.727976 28.828207
463 3 63 -0.174507 30.612839 33.844411 26.901412
464 3 5 0.150236 31.825780 34.485839 27.147801
465 3 5 -0.054794 32.234467 35.506291 26.072644
466 3 5 0.144718 31.437614 36.816050 26.108587
467 3 63 -0.399142 31.969578 37.708926 25.135615
468 3 5 0.122665 31.182617 38.882411 25.098888
469 3 5 -0.104134 31.765129 39.929722 24.144263
470 3 63 -0.337202 31.055481 41.130132 24.179289
471 3 1 0.759957 29.777275 41.352912 23.741338
472 3 61 -0.581204 29.139916 40.430097 23.258147
473 3 5 0.062457 29.190447 42.782691 23.721084
474 3 5 -0.076044 30.281814 43.762292 24.228419
475 3 5 -0.076044 28.911586 43.159988 22.252061
476 3 5 0.066126 27.823676 31.896398 28.396670
477 3 5 0.074152 27.759405 31.647274 29.974465
478 3 5 0.020526 28.206507 30.181716 30.276777
479 3 1 0.077412 28.691934 32.617013 30.751229
480 3 61 -0.371263 29.601834 32.130844 31.408861
481 3 63 -0.111764 28.639312 33.974814 30.761200
482 3 5 -0.066862 27.736366 34.841609 30.204468
483 3 5 -0.053241 28.444980 35.739435 29.207267
484 3 5 0.028072 27.473062 36.743034 28.617010
485 3 63 -0.278632 28.169120 37.538767 27.702379
486 3 5 -0.042452 27.369437 38.636731 27.346106
487 3 5 0.011714 27.977587 39.238274 26.114151
488 3 63 -0.084543 27.382183 40.429892 25.832708
489 3 1 -0.009992 26.781591 40.817367 24.686642
490 3 61 -0.354227 26.498944 40.019989 23.801985
491 3 5 0.016227 26.516531 42.291198 24.571498
492 3 5 0.078568 27.928181 43.016884 24.668623
493 3 5 0.027761 25.775502 42.706080 23.280155
494 3 5 0.046561 26.201974 31.714621 30.387134
495 3 5 0.107984 25.644753 32.015529 31.853440
496 3 5 -0.029328 26.556986 31.346667 32.907558
497 3 1 0.014276 25.602012 33.539656 32.045053
498 3 61 -0.371205 26.277822 34.031869 32.936881
499 3 63 -0.238097 24.829238 34.410202 31.312006
500 3 5 -0.000365 23.900899 34.278042 30.276131
501 3 5 0.007958 24.237721 35.224969 29.137958
502 3 5 0.014704 23.095153 35.329144 28.113347
503 3 63 -0.388664 23.447273 36.129478 26.998932
504 3 5 0.113896 23.484430 37.495830 27.357403
505 3 5 -0.00626 23.644942 38.349338 26.109493
506 3 63 -0.029346 23.818175 39.658790 26.502778
507 3 1 0.593203 23.994872 40.713022 25.665374
508 3 61 -0.558975 23.896143 40.534434 24.460948
509 3 5 0.123196 24.236101 42.128628 26.230714
510 3 5 -0.021611 25.679321 42.708381 25.854466
511 3 5 -0.052628 23.135779 43.040071 25.654608
512 3 5 -0.009258 24.175235 31.426229 32.017521
513 3 5 0.137918 23.265504 31.557607 33.301319
514 3 5 -0.044654 23.809742 30.674716 34.473822
515 3 1 0.501095 23.150931 33.012153 33.814259
516 3 61 -0.567231 23.540538 33.269127 34.947744
517 3 63 0.013794 22.618306 34.018146 33.064802
518 3 5 -0.104029 22.256188 35.267588 33.573490
519 3 5 0.006748 23.134186 36.397571 33.008115
520 3 5 0.071664 22.693862 37.767477 33.543177
521 3 63 -0.384397 23.607592 38.780089 33.156599
522 3 5 0.125944 23.171753 39.478429 32.005897
523 3 5 0.015801 24.087531 40.684588 31.801718
524 3 63 -0.132493 23.728889 41.398355 30.670700
525 3 1 0.696583 24.409546 42.498017 30.236267
526 3 61 -0.599874 25.361628 42.912347 30.887791
527 3 5 0.067838 24.056072 43.143581 28.883034
528 3 5 0.005441 24.106300 41.985798 27.815831
529 3 5 -0.063474 25.109216 44.234724 28.565031
530 3 5 -0.061231 21.818146 30.951540 33.035565
531 3 5 0.093328 20.962066 31.060004 31.712913
532 3 5 -0.063451 19.558476 30.490278 32.041579
533 3 1 0.648761 20.740654 32.475451 31.198359
534 3 61 -0.524796 21.034036 32.749790 30.043604
535 3 63 -0.344027 20.089352 33.382068 31.976470
536 3 5 -0.137957 19.258895 34.403570 31.530613
537 3 5 0.086443 19.932848 35.428712 30.597655
538 3 5 0.173524 18.941555 36.531022 30.208243
539 3 63 -0.408589 19.503829 37.412556 29.252486
540 3 5 0.086776 20.181521 38.493272 29.864283
541 3 5 0.133865 20.216495 39.660740 28.881745
542 3 63 -0.452331 20.829154 40.755316 29.460393
543 3 1 0.777226 20.922428 41.968658 28.854929
544 3 61 -0.560457 20.510775 42.127724 27.714052
545 3 5 0.026178 21.444346 43.145904 29.637850
546 3 5 -0.005638 22.667121 43.873850 28.999308
547 3 5 -0.105595 20.292730 44.147877 29.818263
548 3 5 -0.063451 21.529172 30.142876 30.585559
549 3 26 0.095459 30.663685 31.423131 23.279392
550 3 26 0.095459 30.077293 30.301801 24.525402
551 3 26 0.095459 31.144146 31.721359 24.976632
552 3 26 0.032263 28.290058 31.860259 23.843069
553 3 27 0.206195 29.572382 33.023151 22.126593
554 3 26 0.04376 27.423128 35.391666 21.807915
555 3 26 0.04376 28.333867 36.950346 21.744458
556 3 26 0.04376 28.073084 36.156662 23.298081
557 3 26 0.04376 30.859183 36.963705 22.121547
558 3 26 0.04376 31.729826 35.412841 22.458950
559 3 26 0.04376 30.622075 36.152103 23.663527
560 3 20 0.008208 30.747237 34.276607 20.390778
561 3 20 0.008208 28.982927 34.269449 20.125328
562 3 26 0.015381 27.658342 32.931691 26.013346
563 3 26 0.015381 27.735795 31.187123 25.835526
564 3 26 0.010954 30.560079 30.390777 26.673299
565 3 26 0.010954 28.997703 29.660766 27.182086
566 3 26 0.010954 30.244019 30.255823 28.340328
567 3 20 0.028447 32.617740 33.703642 27.159180
568 3 20 0.028447 31.816914 34.981529 28.144229
569 3 26 0.037765 32.186834 35.028393 25.071592
570 3 26 0.037765 33.294505 35.781629 26.267458
571 3 20 0.010085 31.546087 37.256429 27.126036
572 3 20 0.010085 30.365627 36.589603 25.917090
573 3 20 0.064583 30.177456 38.623306 24.716120
574 3 20 0.064583 31.168384 39.353613 26.107605
575 3 20 0.134171 32.805188 40.143718 24.469656
576 3 20 0.134171 31.803123 39.536203 23.105058
577 3 26 0.013105 31.203919 43.693061 23.610395
578 3 26 0.013105 30.558665 43.537091 25.281423
579 3 26 0.013105 29.927096 44.815121 24.183200
580 3 26 0.013105 29.855689 43.144402 21.664494
581 3 26 0.013105 28.474170 44.178813 22.177539
582 3 26 0.013105 28.254637 42.430077 21.751201
583 3 26 -0.014706 27.372874 32.890139 28.228439
584 3 26 -0.014706 27.090983 31.163460 27.988186
585 3 26 0.002529 29.278252 30.013670 30.112295
586 3 26 0.002529 27.635308 29.449520 29.666470
587 3 26 0.002529 28.066446 29.908202 31.335056
588 3 20 0.12772 27.316885 35.475022 31.013442
589 3 20 0.12772 26.914737 34.311034 29.722403
590 3 26 0.055769 28.870446 35.128767 28.388465
591 3 26 0.055769 29.270401 36.281537 29.719273
592 3 20 0.052675 27.046771 37.350032 29.452054
593 3 20 0.052675 26.679446 36.200436 28.071167
594 3 20 0.071529 26.329713 38.349363 27.092020
595 3 20 0.071529 27.381554 39.389350 28.167584
596 3 20 0.101738 29.015188 39.479443 26.378484
597 3 20 0.101738 27.934045 38.524484 25.261639
598 3 26 -0.009983 28.318082 42.812676 25.691617
599 3 26 -0.009983 27.702941 44.107040 24.642173
600 3 26 0.014273 26.285675 42.362625 22.371979
601 3 26 0.014273 25.664884 43.810519 23.240128
602 3 26 0.014273 24.768611 42.274290 23.202950
603 3 26 0.024055 25.712430 32.430097 29.714560
604 3 26 0.024055 25.760881 30.751219 30.047736
605 3 26 0.035106 27.609483 31.645990 32.807528
606 3 26 0.035106 26.482151 30.239922 32.864289