LAMMPS Description

6143  atoms
4335  bonds
3434  angles
2295  dihedrals
0  impropers

90  atom types
840  bond types
4614  angle types
985  dihedral types
38  improper types

-0.05 40.05 xlo xhi
-0.05 40.05 ylo yhi
-0.05 40.05 zlo zhi

Masses

1 12.01  # c
2 12.01  # cs
3 12.01  # c1
4 12.01  # c2
5 12.01  # c3
6 12.01  # ca
7 12.01  # cp
8 12.01  # cq
9 12.01  # cc
10 12.01  # cd
11 12.01  # ce
12 12.01  # cf
13 12.01  # cg
14 12.01  # ch
15 12.01  # cx
16 12.01  # cy
17 12.01  # cu
18 12.01  # cv
19 12.01  # cz
20 1.008  # h1
21 1.008  # h2
22 1.008  # h3
23 1.008  # h4
24 1.008  # h5
25 1.008  # ha
26 1.008  # hc
27 1.008  # hn
28 1.008  # ho
29 1.008  # hp
30 1.008  # hs
31 1.008  # hw
32 1.008  # hx
33 19.00  # f
34 35.45  # cl
35 79.90  # br
36 126.9  # i
37 14.01  # n
38 14.01  # n1
39 14.01  # n2
40 14.01  # n3
41 14.01  # n4
42 14.01  # na
43 14.01  # nb
44 14.01  # nc
45 14.01  # nd
46 14.01  # ne
47 14.01  # nf
48 14.01  # nh
49 14.01  # no
50 14.01  # ns
51 14.01  # nt
52 14.01  # nx
53 14.01  # ny
54 14.01  # nz
55 14.01  # n+
56 14.01  # nu
57 14.01  # nv
58 14.01  # n7
59 14.01  # n8
60 14.01  # n9
61 16.00  # o
62 16.00  # oh
63 16.00  # os
64 16.00  # ow
65 30.97  # p2
66 30.97  # p3
67 30.97  # p4
68 30.97  # p5
69 30.97  # pb
70 30.97  # pc
71 30.97  # pd
72 30.97  # pe
73 30.97  # pf
74 30.97  # px
75 30.97  # py
76 32.06  # s
77 32.06  # s2
78 32.06  # s4
79 32.06  # s6
80 32.06  # sh
81 32.06  # ss
82 32.06  # sx
83 32.06  # sy
84 6.94  # li+
85 39.10  # k+
86 22.99  # na+
87 35.45  # cl-
88 19.00  # fl-
89 79.90  # br-
90 126.9  # i-

Atoms

1 1 5 -0.130200 23.992 8.494 28.564
2 1 26 0.013836 24.249 9.239 29.357
3 1 26 0.013836 23.878 7.588 29.188
4 1 5 0.178101 24.971 8.415 27.396
5 1 20 0.113844 25.960 8.441 27.839
6 1 63 -0.45099 24.977 9.515 26.520
7 1 79 1.164535 23.732 9.983 25.542
8 1 61 -0.652468 24.355 10.229 24.234
9 1 61 -0.652468 22.832 8.869 25.477
10 1 61 -0.652468 23.125 11.175 26.121
11 1 5 -0.065823 24.883 7.086 26.584
12 1 26 0.04642 24.939 6.252 27.331
13 1 26 0.04642 23.914 6.898 26.153
14 1 5 0.189838 25.929 7.034 25.473
15 1 20 0.031234 25.783 7.908 24.873
16 1 62 -0.648025 25.778 5.887 24.583
17 1 28 0.392967 25.948 5.122 25.127
18 1 5 -0.065823 27.404 6.928 26.104
19 1 26 0.04642 27.461 7.359 27.123
20 1 26 0.04642 27.765 5.861 26.165
21 1 5 0.189838 28.413 7.825 25.392
22 1 20 0.031234 28.167 8.935 25.501
23 1 62 -0.648025 28.573 7.409 24.040
24 1 28 0.392967 29.552 7.349 23.878
25 1 5 -0.065823 29.782 7.673 26.094
26 1 26 0.04642 29.560 7.906 27.186
27 1 26 0.04642 30.131 6.671 25.972
28 1 5 0.178101 30.816 8.718 25.532
29 1 20 0.113844 30.521 9.103 24.548
30 1 63 -0.45099 32.114 8.061 25.530
31 1 79 1.164535 32.687 7.476 24.100
32 1 61 -0.652468 33.898 6.762 24.527
33 1 61 -0.652468 32.908 8.723 23.323
34 1 61 -0.652468 31.606 6.607 23.598
35 1 5 -0.065823 31.089 9.890 26.490
36 1 26 0.04642 31.417 9.526 27.510
37 1 26 0.04642 31.916 10.397 26.072
38 1 5 0.189838 29.898 10.820 26.855
39 1 20 0.031234 29.027 10.228 27.110
40 1 62 -0.648025 29.426 11.523 25.652
41 1 28 0.392967 29.026 10.945 25.005
42 1 5 -0.065823 30.226 11.818 28.004
43 1 26 0.04642 30.553 11.364 28.982
44 1 26 0.04642 31.139 12.395 27.618
45 1 5 0.178101 29.001 12.709 28.306
46 1 20 0.113844 28.804 13.222 27.372
47 1 63 -0.45099 27.824 12.053 28.762
48 1 79 1.164535 27.799 11.042 30.041
49 1 61 -0.652468 28.708 11.614 30.998
50 1 61 -0.652468 26.397 11.043 30.437
51 1 61 -0.652468 28.260 9.740 29.553
52 1 26 0.013836 23.009 8.800 28.237
53 1 5 -0.130201 29.366 13.836 29.337
54 1 26 0.013836 29.993 13.459 30.172
55 1 26 0.013836 28.502 14.329 29.830
56 1 26 0.013836 29.794 14.696 28.851
57 2 5 -0.130200 27.047 37.307 21.294
58 2 26 0.013836 27.211 36.470 20.571
59 2 26 0.013836 28.071 37.726 21.330
60 2 5 0.178101 26.411 36.910 22.625
61 2 20 0.113844 26.912 35.998 22.928
62 2 63 -0.45099 25.057 36.538 22.575
63 2 79 1.164535 23.794 37.526 22.182
64 2 61 -0.652468 22.780 37.266 23.213
65 2 61 -0.652468 24.288 38.868 22.279
66 2 61 -0.652468 23.349 37.178 20.839
67 2 5 -0.065823 26.640 37.945 23.771
68 2 26 0.04642 27.741 38.156 23.793
69 2 26 0.04642 26.257 38.928 23.557
70 2 5 0.189838 26.044 37.464 25.091
71 2 20 0.031234 25.010 37.260 24.904
72 2 62 -0.648025 26.086 38.468 26.149
73 2 28 0.392967 27.014 38.608 26.327
74 2 5 -0.065823 26.861 36.191 25.639
75 2 26 0.04642 27.355 35.624 24.826
76 2 26 0.04642 27.657 36.485 26.382
77 2 5 0.189838 25.947 35.102 26.191
78 2 20 0.031234 25.271 34.647 25.391
79 2 62 -0.648025 25.236 35.584 27.327
80 2 28 0.392967 25.339 34.896 28.037
81 2 5 -0.065823 26.826 33.918 26.658
82 2 26 0.04642 27.448 33.658 25.741
83 2 26 0.04642 27.442 34.236 27.471
84 2 5 0.178101 25.934 32.684 27.057
85 2 20 0.113844 24.899 32.976 27.274
86 2 63 -0.45099 26.598 32.034 28.177
87 2 79 1.164535 26.016 32.308 29.693
88 2 61 -0.652468 27.019 31.638 30.531
89 2 61 -0.652468 24.680 31.659 29.633
90 2 61 -0.652468 25.993 33.778 29.817
91 2 5 -0.065823 25.949 31.552 26.016
92 2 26 0.04642 27.004 31.213 25.786
93 2 26 0.04642 25.469 30.739 26.491
94 2 5 0.189838 25.401 31.866 24.595
95 2 20 0.031234 25.805 32.806 24.239
96 2 62 -0.648025 23.965 32.181 24.672
97 2 28 0.392967 23.778 32.996 25.134
98 2 5 -0.065823 25.679 30.734 23.564
99 2 26 0.04642 26.761 30.458 23.406
100 2 26 0.04642 25.196 29.806 24.034
101 2 5 0.178101 25.103 31.114 22.182
102 2 20 0.113844 24.042 31.244 22.360
103 2 63 -0.45099 25.640 32.273 21.556
104 2 79 1.164535 27.236 32.497 21.305
105 2 61 -0.652468 27.755 31.200 20.959
106 2 61 -0.652468 27.266 33.483 20.231
107 2 61 -0.652468 27.792 32.996 22.564
108 2 26 0.013836 26.423 37.998 20.748
109 2 5 -0.130201 25.219 29.914 21.176
110 2 26 0.013836 26.201 29.399 21.242
111 2 26 0.013836 25.109 30.177 20.104
112 2 26 0.013836 24.388 29.237 21.267
113 3 5 -0.130200 13.234 22.627 25.959
114 3 26 0.013836 12.924 23.672 25.708
115 3 26 0.013836 12.384 22.069 25.522
116 3 5 0.178101 13.549 22.372 27.431
117 3 20 0.113844 12.767 22.873 27.990
118 3 63 -0.45099 14.728 22.960 27.920
119 3 79 1.164535 16.266 22.586 27.449
120 3 61 -0.652468 17.018 22.447 28.703
121 3 61 -0.652468 16.182 21.331 26.762
122 3 61 -0.652468 16.756 23.668 26.604
123 3 5 -0.065823 13.492 20.867 27.840
124 3 26 0.04642 12.509 20.474 27.471
125 3 26 0.04642 14.173 20.238 27.293
126 3 5 0.189838 13.747 20.679 29.333
127 3 20 0.031234 14.690 21.141 29.544
128 3 62 -0.648025 13.870 19.281 29.733
129 3 28 0.392967 13.010 18.897 29.572
130 3 5 -0.065823 12.528 21.292 30.186
131 3 26 0.04642 11.997 22.098 29.645
132 3 26 0.04642 11.767 20.507 30.463
133 3 5 0.189838 13.002 22.074 31.408
134 3 20 0.031234 13.609 23.000 31.130
135 3 62 -0.648025 13.673 21.207 32.317
136 3 28 0.392967 13.282 21.383 33.214
137 3 5 -0.065823 11.761 22.643 32.134
138 3 26 0.04642 11.211 23.226 31.326
139 3 26 0.04642 11.168 21.834 32.504
140 3 5 0.178101 12.190 23.621 33.290
141 3 20 0.113844 13.229 23.458 33.604
142 3 63 -0.45099 11.228 23.444 34.366
143 3 79 1.164535 11.667 22.524 35.661
144 3 61 -0.652468 10.413 22.449 36.421
145 3 61 -0.652468 12.748 23.343 36.268
146 3 61 -0.652468 12.106 21.246 35.071
147 3 5 -0.065823 11.974 25.105 32.952
148 3 26 0.04642 10.904 25.310 32.644
149 3 26 0.04642 12.128 25.618 33.862
150 3 5 0.189838 12.766 25.699 31.752
151 3 20 0.031234 12.706 25.033 30.900
152 3 62 -0.648025 14.208 25.666 32.042
153 3 28 0.392967 14.568 24.782 32.090
154 3 5 -0.065823 12.299 27.129 31.352
155 3 26 0.04642 11.213 27.238 31.068
156 3 26 0.04642 12.423 27.740 32.314
157 3 5 0.178101 13.133 27.652 30.163
158 3 20 0.113844 14.154 27.649 30.527
159 3 63 -0.45099 13.046 26.921 28.945
160 3 79 1.164535 11.633 26.570 28.208
161 3 61 -0.652468 10.803 27.729 28.401
162 3 61 -0.652468 12.033 26.314 26.831
163 3 61 -0.652468 11.094 25.388 28.884
164 3 26 0.013836 14.099 22.460 25.334
165 3 5 -0.130201 12.797 29.155 29.858
166 3 26 0.013836 11.707 29.364 29.902
167 3 26 0.013836 13.116 29.523 28.861
168 3 26 0.013836 13.372 29.824 30.474
169 4 5 -0.130200 34.144 28.551 23.227
170 4 26 0.013836 33.647 29.204 23.986
171 4 26 0.013836 34.931 28.096 23.857
172 4 5 0.178101 34.598 29.258 21.952
173 4 20 0.113844 35.054 30.186 22.277
174 4 63 -0.45099 33.577 29.682 21.084
175 4 79 1.164535 32.537 28.701 20.259
176 4 61 -0.652468 32.531 29.230 18.888
177 4 61 -0.652468 33.107 27.387 20.297
178 4 61 -0.652468 31.234 28.778 20.908
179 4 5 -0.065823 35.691 28.483 21.152
180 4 26 0.04642 36.498 28.223 21.886
181 4 26 0.04642 35.389 27.498 20.837
182 4 5 0.189838 36.156 29.266 19.928
183 4 20 0.031234 35.280 29.480 19.350
184 4 62 -0.648025 37.053 28.512 19.058
185 4 28 0.392967 37.841 28.363 19.577
186 4 5 -0.065823 36.962 30.581 20.382
187 4 26 0.04642 36.663 30.935 21.389
188 4 26 0.04642 38.077 30.412 20.397
189 4 5 0.189838 36.589 31.811 19.560
190 4 20 0.031234 35.499 32.119 19.698
191 4 62 -0.648025 36.956 31.622 18.197
192 4 28 0.392967 37.450 32.440 17.922
193 4 5 -0.065823 37.392 33.019 20.097
194 4 26 0.04642 37.145 33.042 21.207
195 4 26 0.04642 38.434 32.850 19.933
196 4 5 0.178101 36.909 34.355 19.420
197 4 20 0.113844 36.377 34.172 18.478
198 4 63 -0.45099 38.087 35.194 19.265
199 4 79 1.164535 38.789 35.283 17.777
200 4 61 -0.652468 40.001 36.063 18.059
201 4 61 -0.652468 37.741 35.974 16.982
202 4 61 -0.652468 39.035 33.878 17.403
203 4 5 -0.065823 36.049 35.235 20.343
204 4 26 0.04642 36.579 35.461 21.317
205 4 26 0.04642 35.955 36.156 19.833
206 4 5 0.189838 34.698 34.653 20.847
207 4 20 0.031234 34.837 33.640 21.200
208 4 62 -0.648025 33.790 34.439 19.708
209 4 28 0.392967 34.083 33.754 19.111
210 4 5 -0.065823 34.026 35.522 21.952
211 4 26 0.04642 34.635 35.699 22.884
212 4 26 0.04642 33.914 36.553 21.464
213 4 5 0.178101 32.692 34.886 22.397
214 4 20 0.113844 32.094 34.853 21.493
215 4 63 -0.45099 32.759 33.592 22.985
216 4 79 1.164535 33.716 33.234 24.256
217 4 61 -0.652468 33.680 34.397 25.102
218 4 61 -0.652468 33.093 32.040 24.813
219 4 61 -0.652468 35.054 32.988 23.714
220 4 26 0.013836 33.404 27.793 23.018
221 4 5 -0.130201 31.918 35.834 23.382
222 4 26 0.013836 32.587 36.297 24.137
223 4 26 0.013836 31.112 35.352 23.973
224 4 26 0.013836 31.324 36.558 22.852
225 5 5 -0.130200 32.618 8.385 3.251
226 5 26 0.013836 33.359 8.292 2.418
227 5 26 0.013836 32.917 9.368 3.660
228 5 5 0.178101 32.577 7.211 4.226
229 5 20 0.113844 33.612 6.958 4.425
230 5 63 -0.45099 32.036 6.014 3.729
231 5 79 1.164535 30.470 5.777 3.260
232 5 61 -0.652468 30.080 4.507 3.888
233 5 61 -0.652468 29.719 6.868 3.806
234 5 61 -0.652468 30.435 5.731 1.804
235 5 5 -0.065823 31.932 7.555 5.606
236 5 26 0.04642 32.443 8.483 5.973
237 5 26 0.04642 30.916 7.904 5.540
238 5 5 0.189838 31.981 6.367 6.562
239 5 20 0.031234 31.501 5.550 6.063
240 5 62 -0.648025 31.244 6.586 7.802
241 5 28 0.392967 31.707 7.290 8.250
242 5 5 -0.065823 33.500 6.055 6.986
243 5 26 0.04642 34.230 6.393 6.224
244 5 26 0.04642 33.778 6.545 7.964
245 5 5 0.189838 33.813 4.562 6.995
246 5 20 0.031234 33.735 4.090 5.958
247 5 62 -0.648025 33.026 3.900 7.980
248 5 28 0.392967 33.651 3.332 8.504
249 5 5 -0.065823 35.299 4.376 7.381
250 5 26 0.04642 35.861 5.021 6.629
251 5 26 0.04642 35.449 4.722 8.380
252 5 5 0.178101 35.734 2.873 7.217
253 5 20 0.113844 34.874 2.192 7.212
254 5 63 -0.45099 36.685 2.595 8.282
255 5 79 1.164535 36.151 1.774 9.607
256 5 61 -0.652468 37.318 1.838 10.496
257 5 61 -0.652468 35.841 0.437 9.037
258 5 61 -0.652468 34.982 2.545 10.071
259 5 5 -0.065823 36.608 2.617 5.977
260 5 26 0.04642 37.517 3.291 5.963
261 5 26 0.04642 36.968 1.631 6.095
262 5 5 0.189838 35.985 2.899 4.580
263 5 20 0.031234 35.483 3.858 4.583
264 5 62 -0.648025 34.857 1.984 4.344
265 5 28 0.392967 34.112 2.140 4.921
266 5 5 -0.065823 37.021 2.835 3.420
267 5 26 0.04642 37.899 3.538 3.496
268 5 26 0.04642 37.469 1.783 3.505
269 5 5 0.178101 36.331 3.119 2.069
270 5 20 0.113844 35.581 2.341 1.981
271 5 63 -0.45099 35.730 4.398 1.908
272 5 79 1.164535 36.527 5.799 2.154
273 5 61 -0.652468 37.859 5.574 1.658
274 5 61 -0.652468 35.739 6.765 1.399
275 5 61 -0.652468 36.510 6.042 3.597
276 5 26 0.013836 31.674 8.509 2.740
277 5 5 -0.130201 37.321 2.887 0.872
278 5 26 0.013836 38.332 3.300 1.072
279 5 26 0.013836 37.015 3.338 -0.095
280 5 26 0.013836 37.347 1.854 0.571
281 6 5 -0.130200 36.538 21.392 22.374
282 6 26 0.013836 37.380 21.113 23.055
283 6 26 0.013836 36.119 22.248 22.934
284 6 5 0.178101 35.578 20.258 22.019
285 6 20 0.113844 35.395 19.728 22.947
286 6 63 -0.45099 36.086 19.262 21.168
287 6 79 1.164535 36.540 19.471 19.594
288 6 61 -0.652468 35.925 18.346 18.875
289 6 61 -0.652468 35.971 20.718 19.174
290 6 61 -0.652468 37.996 19.460 19.537
291 6 5 -0.065823 34.187 20.743 21.503
292 6 26 0.04642 33.813 21.490 22.252
293 6 26 0.04642 34.236 21.357 20.621
294 6 5 0.189838 33.247 19.572 21.231
295 6 20 0.031234 33.753 18.926 20.542
296 6 62 -0.648025 31.996 19.964 20.591
297 6 28 0.392967 31.544 20.508 21.233
298 6 5 -0.065823 32.845 18.849 22.610
299 6 26 0.04642 33.611 18.986 23.398
300 6 26 0.04642 31.865 19.228 23.018
301 6 5 0.189838 32.861 17.328 22.502
302 6 20 0.031234 33.903 16.912 22.290
303 6 62 -0.648025 31.876 16.891 21.570
304 6 28 0.392967 31.366 16.165 22.020
305 6 5 -0.065823 32.494 16.736 23.883
306 6 26 0.04642 33.243 17.213 24.595
307 6 26 0.04642 31.491 17.011 24.128
308 6 5 0.178101 32.683 15.173 23.888
309 6 20 0.113844 32.687 14.754 22.874
310 6 63 -0.45099 31.632 14.629 24.734
311 6 79 1.164535 30.312 13.964 24.005
312 6 61 -0.652468 29.436 13.691 25.152
313 6 61 -0.652468 30.897 12.773 23.336
314 6 61 -0.652468 29.825 15.018 23.095
315 6 5 -0.065823 33.936 14.708 24.649
316 6 26 0.04642 33.951 15.107 25.709
317 6 26 0.04642 33.835 13.659 24.725
318 6 5 0.189838 35.321 15.172 24.118
319 6 20 0.031234 35.300 16.232 23.898
320 6 62 -0.648025 35.558 14.605 22.780
321 6 28 0.392967 34.970 14.950 22.111
322 6 5 -0.065823 36.494 14.845 25.088
323 6 26 0.04642 36.418 15.279 26.126
324 6 26 0.04642 36.428 13.709 25.230
325 6 5 0.178101 37.834 15.329 24.492
326 6 20 0.113844 37.923 14.788 23.557
327 6 63 -0.45099 37.970 16.726 24.264
328 6 79 1.164535 37.715 17.852 25.416
329 6 61 -0.652468 38.228 17.278 26.632
330 6 61 -0.652468 38.448 19.008 24.918
331 6 61 -0.652468 36.268 18.066 25.477
332 6 26 0.013836 37.036 21.777 21.497
333 6 5 -0.130201 39.045 14.854 25.372
334 6 26 0.013836 38.850 14.971 26.459
335 6 26 0.013836 40.001 15.388 25.195
336 6 26 0.013836 39.359 13.859 25.113
337 7 5 -0.130200 18.470 38.944 37.769
338 7 26 0.013836 17.569 39.090 37.122
339 7 26 0.013836 18.528 39.945 38.237
340 7 5 0.178101 19.719 38.439 37.051
341 7 20 0.113844 19.778 39.007 36.130
342 7 63 -0.45099 19.680 37.105 36.611
343 7 79 1.164535 19.602 35.767 37.575
344 7 61 -0.652468 20.616 34.853 37.031
345 7 61 -0.652468 19.960 36.200 38.893
346 7 61 -0.652468 18.248 35.232 37.498
347 7 5 -0.065823 21.047 38.708 37.825
348 7 26 0.04642 21.042 39.795 38.098
349 7 26 0.04642 21.083 38.260 38.803
350 7 5 0.189838 22.265 38.244 37.031
351 7 20 0.031234 22.109 37.210 36.805
352 7 62 -0.648025 23.515 38.322 37.782
353 7 28 0.392967 23.656 39.252 37.941
354 7 5 -0.065823 22.461 39.164 35.726
355 7 26 0.04642 21.511 39.619 35.382
356 7 26 0.04642 23.195 40.002 35.903
357 7 5 0.189838 22.819 38.353 34.485
358 7 20 0.031234 21.985 37.638 34.170
359 7 62 -0.648025 24.078 37.713 34.662
360 7 28 0.392967 24.610 37.907 33.844
361 7 5 -0.065823 22.951 39.324 33.288
362 7 26 0.04642 21.959 39.883 33.276
363 7 26 0.04642 23.770 39.987 33.462
364 7 5 0.178101 23.126 38.530 31.942
365 7 20 0.113844 23.472 37.502 32.111
366 7 63 -0.45099 24.026 39.313 31.110
367 7 79 1.164535 25.602 38.842 31.009
368 7 61 -0.652468 26.200 39.940 30.240
369 7 61 -0.652468 25.490 37.539 30.301
370 7 61 -0.652468 26.049 38.757 32.411
371 7 5 -0.065823 21.862 38.517 31.066
372 7 26 0.04642 21.491 39.565 30.856
373 7 26 0.04642 22.175 38.117 30.139
374 7 5 0.189838 20.585 37.841 31.644
375 7 20 0.031234 20.420 38.168 32.663
376 7 62 -0.648025 20.827 36.403 31.839
377 7 28 0.392967 21.470 36.213 32.521
378 7 5 -0.065823 19.313 38.092 30.785
379 7 26 0.04642 19.025 39.169 30.621
380 7 26 0.04642 19.596 37.693 29.747
381 7 5 0.178101 18.091 37.388 31.416
382 7 20 0.113844 18.365 36.339 31.435
383 7 63 -0.45099 17.704 37.815 32.717
384 7 79 1.164535 17.400 39.372 33.096
385 7 61 -0.652468 16.741 39.924 31.942
386 7 61 -0.652468 16.573 39.266 34.291
387 7 61 -0.652468 18.697 40.002 33.344
388 7 26 0.013836 18.134 38.244 38.520
389 7 5 -0.130201 16.839 37.482 30.475
390 7 26 0.013836 16.723 38.489 30.024
391 7 26 0.013836 15.863 37.271 30.958
392 7 26 0.013836 16.834 36.695 29.740
393 8 5 -0.130200 12.771 0.827 37.400
394 8 26 0.013836 13.616 1.175 38.045
395 8 26 0.013836 13.272 0.000 36.864
396 8 5 0.178101 12.109 1.908 36.548
397 8 20 0.113844 12.921 2.495 36.136
398 8 63 -0.45099 11.338 2.856 37.243
399 8 79 1.164535 9.944 2.552 38.073
400 8 61 -0.652468 9.016 3.607 37.644
401 8 61 -0.652468 9.489 1.264 37.636
402 8 61 -0.652468 10.245 2.598 39.498
403 8 5 -0.065823 11.304 1.351 35.332
404 8 26 0.04642 11.990 0.648 34.791
405 8 26 0.04642 10.508 0.679 35.604
406 8 5 0.189838 10.724 2.476 34.479
407 8 20 0.031234 10.136 3.086 35.133
408 8 62 -0.648025 9.826 2.007 33.428
409 8 28 0.392967 10.375 1.498 32.836
410 8 5 -0.065823 11.905 3.280 33.741
411 8 26 0.04642 12.866 3.218 34.290
412 8 26 0.04642 12.086 2.904 32.694
413 8 5 0.189838 11.692 4.791 33.770
414 8 20 0.031234 11.714 5.219 34.828
415 8 62 -0.648025 10.518 5.137 33.041
416 8 28 0.392967 10.774 5.878 32.429
417 8 5 -0.065823 12.894 5.466 33.068
418 8 26 0.04642 13.801 5.059 33.621
419 8 26 0.04642 12.904 5.182 32.038
420 8 5 0.178101 12.831 7.030 33.234
421 8 20 0.113844 11.822 7.378 33.485
422 8 63 -0.45099 13.350 7.602 32.002
423 8 79 1.164535 12.273 8.180 30.898
424 8 61 -0.652468 13.145 8.506 29.763
425 8 61 -0.652468 11.683 9.338 31.619
426 8 61 -0.652468 11.351 7.054 30.660
427 8 5 -0.065823 13.841 7.580 34.256
428 8 26 0.04642 14.898 7.254 34.013
429 8 26 0.04642 13.814 8.628 34.130
430 8 5 0.189838 13.703 7.117 35.735
431 8 20 0.031234 13.562 6.045 35.778
432 8 62 -0.648025 12.427 7.597 36.289
433 8 28 0.392967 11.660 7.191 35.888
434 8 5 -0.065823 14.906 7.541 36.628
435 8 26 0.04642 15.921 7.177 36.301
436 8 26 0.04642 14.944 8.682 36.519
437 8 5 0.178101 14.695 7.053 38.077
438 8 20 0.113844 13.773 7.531 38.391
439 8 63 -0.45099 14.610 5.648 38.279
440 8 79 1.164535 15.743 4.598 37.756
441 8 61 -0.652468 17.002 5.267 37.948
442 8 61 -0.652468 15.525 3.430 38.600
443 8 61 -0.652468 15.460 4.349 36.341
444 8 26 0.013836 12.074 0.396 38.103
445 8 5 -0.130201 15.808 7.620 39.029
446 8 26 0.013836 16.820 7.572 38.572
447 8 26 0.013836 15.911 7.100 40.004
448 8 26 0.013836 15.561 8.603 39.389
449 9 5 -0.130200 8.297 5.115 13.376
450 9 26 0.013836 8.757 5.852 12.673
451 9 26 0.013836 7.777 4.462 12.651
452 9 5 0.178101 7.453 5.717 14.498
453 9 20 0.113844 6.856 6.492 14.032
454 9 63 -0.45099 8.159 6.404 15.500
455 9 79 1.164535 9.230 5.736 16.564
456 9 61 -0.652468 8.849 6.283 17.873
457 9 61 -0.652468 9.011 4.320 16.519
458 9 61 -0.652468 10.575 6.119 16.153
459 9 5 -0.065823 6.448 4.713 15.144
460 9 26 0.04642 5.882 4.241 14.299
461 9 26 0.04642 6.914 3.844 15.577
462 9 5 0.189838 5.586 5.385 16.209
463 9 20 0.031234 6.259 5.826 16.915
464 9 62 -0.648025 4.749 4.452 16.956
465 9 28 0.392967 4.134 4.099 16.318
466 9 5 -0.065823 4.587 6.445 15.527
467 9 26 0.04642 4.977 6.837 14.566
468 9 26 0.04642 3.570 6.002 15.326
469 9 5 0.189838 4.490 7.749 16.313
470 9 20 0.031234 5.480 8.317 16.348
471 9 62 -0.648025 3.929 7.508 17.598
472 9 28 0.392967 3.209 8.183 17.723
473 9 5 -0.065823 3.536 8.704 15.557
474 9 26 0.04642 3.976 8.761 14.508
475 9 26 0.04642 2.554 8.284 15.546
476 9 5 0.178101 3.545 10.135 16.212
477 9 20 0.113844 3.918 10.114 17.244
478 9 63 -0.45099 2.193 10.656 16.096
479 9 79 1.164535 1.221 10.603 17.426
480 9 61 -0.652468 -0.068 11.047 16.881
481 9 61 -0.652468 1.902 11.553 18.343
482 9 61 -0.652468 1.255 9.190 17.850
483 9 5 -0.065823 4.327 11.179 15.397
484 9 26 0.04642 3.952 11.240 14.330
485 9 26 0.04642 4.097 12.106 15.848
486 9 5 0.189838 5.848 10.942 15.182
487 9 20 0.031234 6.027 9.916 14.883
488 9 62 -0.648025 6.548 10.990 16.476
489 9 28 0.392967 6.321 10.268 17.059
490 9 5 -0.065823 6.486 11.922 14.155
491 9 26 0.04642 6.041 11.919 13.119
492 9 26 0.04642 6.253 12.961 14.581
493 9 5 0.178101 7.994 11.630 14.000
494 9 20 0.113844 8.400 11.770 14.996
495 9 63 -0.45099 8.354 10.347 13.502
496 9 79 1.164535 7.769 9.729 12.111
497 9 61 -0.652468 7.683 10.844 11.205
498 9 61 -0.652468 8.756 8.716 11.758
499 9 61 -0.652468 6.453 9.170 12.423
500 9 26 0.013836 9.145 4.572 13.767
501 9 5 -0.130201 8.688 12.717 13.103
502 9 26 0.013836 8.083 12.980 12.211
503 9 26 0.013836 9.684 12.437 12.700
504 9 26 0.013836 8.978 13.579 13.677
505 10 5 -0.130200 17.814 5.574 14.023
506 10 26 0.013836 17.573 6.304 14.834
507 10 26 0.013836 18.623 5.005 14.518
508 10 5 0.178101 18.130 6.187 12.660
509 10 20 0.113844 18.777 7.033 12.862
510 10 63 -0.45099 17.045 6.761 11.976
511 10 79 1.164535 15.731 5.951 11.389
512 10 61 -0.652468 15.556 6.462 10.023
513 10 61 -0.652468 16.088 4.563 11.374
514 10 61 -0.652468 14.597 6.240 12.259
515 10 5 -0.065823 18.924 5.240 11.707
516 10 26 0.04642 19.802 4.862 12.293
517 10 26 0.04642 18.419 4.314 11.490
518 10 5 0.189838 19.271 5.928 10.390
519 10 20 0.031234 18.348 6.274 9.972
520 10 62 -0.648025 19.866 5.032 9.403
521 10 28 0.392967 20.702 4.765 9.777
522 10 5 -0.065823 20.341 7.102 10.641
523 10 26 0.04642 20.291 7.507 11.671
524 10 26 0.04642 21.400 6.757 10.462
525 10 5 0.189838 20.019 8.368 9.853
526 10 20 0.031234 19.033 8.848 10.174
527 10 62 -0.648025 20.096 8.109 8.454
528 10 28 0.392967 20.652 8.835 8.064
529 10 5 -0.065823 21.084 9.437 10.190
530 10 26 0.04642 21.052 9.510 11.325
531 10 26 0.04642 22.040 9.102 9.847
532 10 5 0.178101 20.699 10.827 9.560
533 10 20 0.113844 19.981 10.722 8.737
534 10 63 -0.45099 21.944 11.464 9.164
535 10 79 1.164535 22.366 11.426 7.571
536 10 61 -0.652468 23.715 12.005 7.599
537 10 61 -0.652468 21.310 12.268 6.952
538 10 61 -0.652468 22.318 9.996 7.213
539 10 5 -0.065823 20.169 11.842 10.588
540 10 26 0.04642 20.898 11.988 11.442
541 10 26 0.04642 20.128 12.760 10.069
542 10 5 0.189838 18.860 11.487 11.349
543 10 20 0.031234 18.903 10.467 11.710
544 10 62 -0.648025 17.737 11.411 10.402
545 10 28 0.392967 17.807 10.681 9.788
546 10 5 -0.065823 18.547 12.461 12.523
547 10 26 0.04642 19.337 12.548 13.323
548 10 26 0.04642 18.508 13.493 12.023
549 10 5 0.178101 17.235 12.051 13.224
550 10 20 0.113844 16.484 12.106 12.444
551 10 63 -0.45099 17.207 10.769 13.841
552 10 79 1.164535 18.315 10.275 14.931
553 10 61 -0.652468 18.615 11.437 15.725
554 10 61 -0.652468 17.628 9.201 15.637
555 10 61 -0.652468 19.476 9.814 14.168
556 10 26 0.013836 16.940 4.942 13.979
557 10 5 -0.130201 16.812 13.119 14.294
558 10 26 0.013836 17.672 13.478 14.898
559 10 26 0.013836 16.063 12.778 15.039
560 10 26 0.013836 16.251 13.924 13.853
561 11 5 -0.130200 30.516 18.112 32.765
562 11 26 0.013836 30.765 18.961 33.449
563 11 26 0.013836 29.430 18.284 32.640
564 11 5 0.178101 30.949 16.730 33.249
565 11 20 0.113844 30.692 16.694 34.301
566 11 63 -0.45099 32.331 16.479 33.242
567 11 79 1.164535 33.294 16.393 31.903
568 11 61 -0.652468 34.101 15.181 32.100
569 11 61 -0.652468 32.412 16.243 30.784
570 11 61 -0.652468 34.094 17.610 31.842
571 11 5 -0.065823 30.187 15.551 32.566
572 11 26 0.04642 29.094 15.785 32.655
573 11 26 0.04642 30.295 15.522 31.495
574 11 5 0.189838 30.611 14.201 33.138
575 11 20 0.031234 31.674 14.140 33.026
576 11 62 -0.648025 30.050 13.062 32.418
577 11 28 0.392967 29.108 13.112 32.560
578 11 5 -0.065823 30.117 14.062 34.662
579 11 26 0.04642 29.996 15.045 35.158
580 11 26 0.04642 29.133 13.517 34.742
581 11 5 0.189838 31.178 13.448 35.569
582 11 20 0.031234 32.111 14.101 35.661
583 11 62 -0.648025 31.460 12.112 35.163
584 11 28 0.392967 31.421 11.554 35.985
585 11 5 -0.065823 30.617 13.391 37.009
586 11 26 0.04642 30.306 14.464 37.226
587 11 26 0.04642 29.779 12.729 37.034
588 11 5 0.178101 31.733 12.948 38.026
589 11 20 0.113844 32.565 12.433 37.528
590 11 63 -0.45099 31.076 12.139 39.040
591 11 79 1.164535 31.220 10.500 38.942
592 11 61 -0.652468 30.311 10.050 40.005
593 11 61 -0.652468 32.669 10.302 39.199
594 11 61 -0.652468 30.775 10.174 37.574
595 11 5 -0.065823 32.275 14.103 38.885
596 11 26 0.04642 31.441 14.642 39.430
597 11 26 0.04642 32.865 13.637 39.627
598 11 5 0.189838 32.988 15.277 38.157
599 11 20 0.031234 32.404 15.593 37.300
600 11 62 -0.648025 34.214 14.790 37.506
601 11 28 0.392967 34.048 14.188 36.783
602 11 5 -0.065823 33.282 16.491 39.086
603 11 26 0.04642 32.389 16.959 39.593
604 11 26 0.04642 33.911 16.045 39.934
605 11 5 0.178101 33.993 17.611 38.296
606 11 20 0.113844 34.905 17.149 37.936
607 11 63 -0.45099 33.276 18.189 37.211
608 11 79 1.164535 31.776 18.812 37.357
609 11 61 -0.652468 31.753 19.454 38.645
610 11 61 -0.652468 31.677 19.709 36.214
611 11 61 -0.652468 30.847 17.683 37.288
612 11 26 0.013836 31.005 18.378 31.839
613 11 5 -0.130201 34.454 18.768 39.252
614 11 26 0.013836 33.679 19.029 40.004
615 11 26 0.013836 34.702 19.729 38.754
616 11 26 0.013836 35.410 18.560 39.697
617 12 5 -0.130200 4.186 23.244 19.093
618 12 26 0.013836 3.503 22.622 18.462
619 12 26 0.013836 3.941 24.248 18.700
620 12 5 0.178101 5.656 22.830 19.073
621 12 20 0.113844 5.888 22.621 18.035
622 12 63 -0.45099 5.966 21.625 19.726
623 12 79 1.164535 5.828 21.336 21.346
624 12 61 -0.652468 7.092 20.686 21.719
625 12 61 -0.652468 5.710 22.619 21.973
626 12 61 -0.652468 4.663 20.487 21.557
627 12 5 -0.065823 6.637 23.954 19.530
628 12 26 0.04642 6.375 24.867 18.935
629 12 26 0.04642 6.459 24.312 20.529
630 12 5 0.189838 8.093 23.507 19.424
631 12 20 0.031234 8.181 22.608 20.000
632 12 62 -0.648025 9.038 24.461 19.996
633 12 28 0.392967 8.972 25.240 19.449
634 12 5 -0.065823 8.508 23.325 17.882
635 12 26 0.04642 7.639 23.097 17.233
636 12 26 0.04642 9.011 24.245 17.466
637 12 5 0.189838 9.341 22.069 17.643
638 12 20 0.031234 8.764 21.109 17.867
639 12 62 -0.648025 10.581 22.160 18.337
640 12 28 0.392967 11.289 21.921 17.681
641 12 5 -0.065823 9.656 21.974 16.132
642 12 26 0.04642 8.634 22.022 15.633
643 12 26 0.04642 10.269 22.801 15.847
644 12 5 0.178101 10.345 20.600 15.791
645 12 20 0.113844 10.789 20.130 16.677
646 12 63 -0.45099 11.307 20.867 14.734
647 12 79 1.164535 12.898 20.991 15.143
648 12 61 -0.652468 13.507 21.416 13.876
649 12 61 -0.652468 13.213 19.607 15.583
650 12 61 -0.652468 12.925 22.009 16.210
651 12 5 -0.065823 9.411 19.602 15.085
652 12 26 0.04642 8.951 20.051 14.153
653 12 26 0.04642 10.042 18.819 14.762
654 12 5 0.189838 8.150 19.118 15.856
655 12 20 0.031234 7.643 19.962 16.308
656 12 62 -0.648025 8.556 18.355 17.047
657 12 28 0.392967 8.994 18.886 17.709
658 12 5 -0.065823 7.161 18.306 14.971
659 12 26 0.04642 6.761 18.832 14.058
660 12 26 0.04642 7.796 17.441 14.567
661 12 5 0.178101 5.941 17.856 15.804
662 12 20 0.113844 6.365 17.248 16.596
663 12 63 -0.45099 5.126 18.882 16.358
664 12 79 1.164535 4.474 20.085 15.471
665 12 61 -0.652468 4.100 19.480 14.220
666 12 61 -0.652468 3.363 20.540 16.297
667 12 61 -0.652468 5.521 21.095 15.304
668 12 26 0.013836 3.765 23.161 20.084
669 12 5 -0.130201 5.020 16.890 14.977
670 12 26 0.013836 4.877 17.233 13.930
671 12 26 0.013836 3.993 16.753 15.374
672 12 26 0.013836 5.358 15.870 15.036
673 13 5 -0.130200 24.294 19.117 15.235
674 13 26 0.013836 24.964 18.361 15.717
675 13 26 0.013836 24.783 20.047 15.580
676 13 5 0.178101 22.806 18.961 15.537
677 13 20 0.113844 22.742 18.753 16.599
678 13 63 -0.45099 22.169 17.855 14.948
679 13 79 1.164535 21.942 17.615 13.331
680 13 61 -0.652468 20.536 17.207 13.207
681 13 61 -0.652468 22.163 18.883 12.701
682 13 61 -0.652468 22.877 16.587 12.891
683 13 5 -0.065823 21.969 20.255 15.288
684 13 26 0.04642 22.498 21.084 15.827
685 13 26 0.04642 22.015 20.618 14.276
686 13 5 0.189838 20.505 20.061 15.672
687 13 20 0.031234 20.152 19.215 15.119
688 13 62 -0.648025 19.651 21.186 15.302
689 13 28 0.392967 19.957 21.919 15.831
690 13 5 -0.065823 20.365 19.889 17.265
691 13 26 0.04642 21.288 19.489 17.730
692 13 26 0.04642 20.121 20.864 17.777
693 13 5 0.189838 19.385 18.787 17.652
694 13 20 0.031234 19.730 17.752 17.313
695 13 62 -0.648025 18.072 19.119 17.213
696 13 28 0.392967 17.470 18.977 17.993
697 13 5 -0.065823 19.351 18.684 19.195
698 13 26 0.04642 20.442 18.535 19.485
699 13 26 0.04642 18.959 19.592 19.600
700 13 5 0.178101 18.508 17.436 19.653
701 13 20 0.113844 17.827 17.087 18.867
702 13 63 -0.45099 17.826 17.821 20.879
703 13 79 1.164535 16.233 18.234 20.788
704 13 61 -0.652468 15.961 18.704 22.152
705 13 61 -0.652468 15.601 16.944 20.407
706 13 61 -0.652468 16.185 19.284 19.754
707 13 5 -0.065823 19.367 16.265 20.156
708 13 26 0.04642 20.067 16.589 20.984
709 13 26 0.04642 18.681 15.590 20.590
710 13 5 0.189838 20.353 15.603 19.150
711 13 20 0.031234 20.906 16.365 18.615
712 13 62 -0.648025 19.600 14.971 18.056
713 13 28 0.392967 19.145 15.597 17.495
714 13 5 -0.065823 21.334 14.597 19.821
715 13 26 0.04642 21.985 15.009 20.643
716 13 26 0.04642 20.643 13.839 20.334
717 13 5 0.178101 22.274 13.979 18.764
718 13 20 0.113844 21.606 13.487 18.065
719 13 63 -0.45099 23.137 14.871 18.069
720 13 79 1.164535 24.147 15.907 18.821
721 13 61 -0.652468 24.639 15.195 19.970
722 13 61 -0.652468 25.143 16.199 17.798
723 13 61 -0.652468 23.346 17.074 19.196
724 13 26 0.013836 24.498 19.004 14.181
725 13 5 -0.130201 23.149 12.835 19.389
726 13 26 0.013836 23.546 13.106 20.390
727 13 26 0.013836 24.042 12.541 18.798
728 13 26 0.013836 22.632 11.892 19.389
729 14 5 -0.130200 19.374 23.156 32.037
730 14 26 0.013836 18.526 22.466 31.803
731 14 26 0.013836 19.121 23.999 31.366
732 14 5 0.178101 20.769 22.552 31.897
733 14 20 0.113844 20.750 21.981 30.975
734 14 63 -0.45099 21.129 21.598 32.865
735 14 79 1.164535 21.334 21.884 34.478
736 14 61 -0.652468 22.599 21.218 34.818