LAMMPS Description

5331  atoms
4318  bonds
5049  angles
6120  dihedrals
1122  impropers

90  atom types
840  bond types
4614  angle types
985  dihedral types
38  improper types

-0.5 40.5 xlo xhi
-0.5 40.5 ylo yhi
-0.5 40.5 zlo zhi

Masses

1 12.01
2 12.01
3 12.01
4 12.01
5 12.01
6 12.01
7 12.01
8 12.01
9 12.01
10 12.01
11 12.01
12 12.01
13 12.01
14 12.01
15 12.01
16 12.01
17 12.01
18 12.01
19 12.01
20 1.008
21 1.008
22 1.008
23 1.008
24 1.008
25 1.008
26 1.008
27 1.008
28 1.008
29 1.008
30 1.008
31 1.008
32 1.008
33 19.00
34 35.45
35 79.90
36 126.9
37 14.01
38 14.01
39 14.01
40 14.01
41 14.01
42 14.01
43 14.01
44 14.01
45 14.01
46 14.01
47 14.01
48 14.01
49 14.01
50 14.01
51 14.01
52 14.01
53 14.01
54 14.01
55 14.01
56 14.01
57 14.01
58 14.01
59 14.01
60 14.01
61 16.00
62 16.00
63 16.00
64 16.00
65 30.97
66 30.97
67 30.97
68 30.97
69 30.97
70 30.97
71 30.97
72 30.97
73 30.97
74 30.97
75 30.97
76 32.06
77 32.06
78 32.06
79 32.06
80 32.06
81 32.06
82 32.06
83 32.06
84 6.94
85 39.10
86 22.99
87 35.45
88 19.00
89 79.90
90 126.9

Atoms

1 1 5 -0.051233 32.200674 1.536846 35.308305
2 1 26 -0.000556 31.872119 1.406502 36.361304
3 1 26 -0.000556 33.061129 2.239302 35.296160
4 1 5 0.030247 31.040559 2.059117 34.445612
5 1 26 0.028561 30.216045 1.317694 34.541783
6 1 6 0.077933 31.500693 2.128870 32.998167
7 1 6 -0.200132 32.548100 2.984585 32.604675
8 1 25 0.120991 33.034574 3.629120 33.324735
9 1 6 -0.123165 32.982340 3.010276 31.276334
10 1 25 0.137797 33.792602 3.669589 30.992217
11 1 6 -0.043312 32.382652 2.182150 30.322304
12 1 79 1.139467 32.977227 2.200569 28.628950
13 1 6 -0.123165 31.337677 1.332179 30.701868
14 1 25 0.137797 30.866801 0.683526 29.975043
15 1 6 -0.200132 30.899444 1.305114 32.029384
16 1 25 0.120991 30.095759 0.632634 32.301576
17 1 61 -0.686299 34.497744 1.405575 28.588654
18 1 61 -0.686299 31.860197 1.377591 27.617006
19 1 61 -0.686299 33.135896 3.832167 28.120137
20 1 5 -0.167947 30.526542 3.407100 35.019310
21 1 26 0.053829 30.327453 3.225103 36.099084
22 1 26 0.053829 31.322194 4.181068 34.963311
23 1 5 0.061335 29.199573 3.942521 34.410525
24 1 26 0.066322 28.440377 3.136233 34.524416
25 1 6 0.022005 29.358464 4.283702 32.939370
26 1 6 -0.142215 30.257813 5.277670 32.509493
27 1 25 0.122111 30.852806 5.828202 33.226269
28 1 6 -0.138255 30.396530 5.566547 31.148043
29 1 25 0.125927 31.093745 6.333368 30.838052
30 1 6 -0.052124 29.641760 4.866102 30.199099
31 1 79 1.076745 29.811710 5.213881 28.447378
32 1 6 -0.138255 28.745006 3.879917 30.618831
33 1 25 0.125927 28.157657 3.333423 29.892236
34 1 6 -0.142215 28.602494 3.590035 31.977342
35 1 25 0.122111 27.903845 2.819220 32.276837
36 1 61 -0.647047 31.126226 6.290734 28.199583
37 1 61 -0.647047 30.103671 3.736084 27.627610
38 1 61 -0.647047 28.352542 5.915728 27.883839
39 1 5 -0.099102 28.700970 5.144672 35.267553
40 1 26 0.032456 28.632564 4.764550 36.311085
41 1 26 0.032456 29.456391 5.959330 35.272750
42 1 5 0.015778 27.296328 5.713339 34.909270
43 1 26 0.022425 26.585750 4.856691 34.896462
44 1 6 -0.035969 27.310758 6.411825 33.560271
45 1 6 -0.131756 28.131079 7.535525 33.340320
46 1 25 0.101496 28.775625 7.912222 34.123104
47 1 6 -0.139767 28.113428 8.196501 32.111816
48 1 25 0.14135 28.741339 9.065839 31.965366
49 1 6 -0.051918 27.281303 7.748319 31.083314
50 1 79 1.157597 27.253462 8.640496 29.528594
51 1 6 -0.139767 26.472684 6.622901 31.284402
52 1 25 0.14135 25.823396 6.264714 30.496933
53 1 6 -0.131756 26.487458 5.957590 32.514654
54 1 25 0.101496 25.846399 5.096456 32.655460
55 1 61 -0.691163 28.846935 8.666448 28.891328
56 1 61 -0.691163 26.185955 7.861313 28.432276
57 1 61 -0.691163 26.704422 10.236512 29.838513
58 1 5 -0.000586 26.819386 6.676027 36.044478
59 1 26 -0.010501 26.894358 6.108213 36.998269
60 1 26 -0.010501 27.510316 7.541723 36.130169
61 1 5 -0.032579 25.346016 7.176594 35.953738
62 1 26 0.137701 24.695324 6.274736 35.920247
63 1 6 -0.011695 25.100827 8.022449 34.695302
64 1 6 -0.095646 25.783336 9.235422 34.479404
65 1 25 0.111209 26.546058 9.564279 35.172913
66 1 6 -0.184492 25.427863 10.078765 33.414995
67 1 25 0.122822 25.924540 11.036088 33.321885
68 1 6 -0.022823 24.372472 9.736871 32.548336
69 1 5 0.164417 23.845998 10.750095 31.533838
70 1 6 -0.184492 23.770032 8.475132 32.691194
71 1 25 0.122822 22.968669 8.175829 32.028012
72 1 6 -0.095646 24.129684 7.628042 33.752276
73 1 25 0.111209 23.595886 6.694414 33.876430
74 1 26 -0.040461 23.933650 10.303888 30.520348
75 1 5 -0.072194 22.352932 11.199373 31.765241
76 1 26 0.004392 21.696288 10.310001 31.661599
77 1 26 0.004392 22.084107 11.893933 30.940581
78 1 5 0.060914 24.965840 7.951843 37.289421
79 1 26 -0.029666 25.187606 7.281297 38.148033
80 1 26 -0.029666 25.633320 8.833755 37.392077
81 1 5 -0.080441 23.466565 8.404712 37.456902
82 1 26 0.161633 22.838841 7.486243 37.425848
83 1 6 -0.033909 23.100348 9.318817 36.338012
84 1 6 -0.046469 23.763184 10.549725 36.180511
85 1 25 0.119472 24.547871 10.856420 36.859220
86 1 6 -0.154837 23.418458 11.396178 35.139849
87 1 25 0.088671 23.940821 12.338532 35.030585
88 1 6 -0.050237 22.408561 11.022252 34.246960
89 1 5 0.18978 22.049953 11.932615 33.121773
90 1 6 -0.154837 21.742545 9.793303 34.407195
91 1 25 0.088671 20.958525 9.486277 33.727935
92 1 6 -0.046469 22.087528 8.946669 35.447732
93 1 25 0.119472 21.566018 8.003820 35.556622
94 1 26 -0.043781 22.681043 12.848971 33.150732
95 1 5 -0.103886 20.556595 12.390303 33.286880
96 1 26 0.015134 19.882106 11.513007 33.189378
97 1 26 0.015134 20.333284 13.064886 32.431620
98 1 5 0.02372 23.159354 9.135692 38.815520
99 1 26 -0.032673 23.427522 8.438879 39.638501
100 1 26 -0.032673 23.816324 10.024417 38.922815
101 1 5 -0.070608 21.665123 9.588032 39.049446
102 1 26 0.047784 21.033831 8.673614 39.025069
103 1 6 -0.002343 21.136053 10.611170 38.043157
104 1 6 -0.14064 21.740932 11.872793 37.904910
105 1 25 0.145001 22.546097 12.165993 38.566478
106 1 6 -0.235918 21.384223 12.724511 36.845355
107 1 25 0.13736 21.928032 13.652316 36.719892
108 1 6 -0.03349 20.416510 12.333013 35.897602
109 1 5 0.334804 20.202335 13.164687 34.622611
110 1 6 -0.235918 19.719892 11.128520 36.117764
111 1 25 0.13736 18.958489 10.800928 35.422130
112 1 6 -0.14064 20.073988 10.279786 37.179579
113 1 25 0.145001 19.573660 9.323939 37.269940
114 1 26 -0.102684 20.861660 14.060179 34.659100
115 1 5 -0.093356 18.757579 13.674742 34.568548
116 1 26 -0.000797 18.528173 14.267935 35.479441
117 1 26 -0.000797 18.616907 14.331671 33.683740
118 1 26 -0.000556 32.541771 0.548412 34.931826
119 1 26 -0.040461 24.475562 11.665872 31.553369
120 1 26 0.047784 21.579067 10.027273 40.066248
121 1 26 -0.000797 18.037821 12.832320 34.497080
122 2 5 -0.051233 18.876195 35.657852 8.516524
123 2 26 -0.000556 18.894462 35.444302 9.606389
124 2 26 -0.000556 18.915117 34.690828 7.971250
125 2 5 0.030247 20.054076 36.566100 8.128506
126 2 26 0.028561 19.956404 37.490049 8.741334
127 2 6 0.077933 19.936978 36.914944 6.653283
128 2 6 -0.200132 20.012430 35.920200 5.658830
129 2 25 0.120991 20.177889 34.884690 5.925121
130 2 6 -0.123165 19.867322 36.253637 4.309209
131 2 25 0.137797 19.922104 35.475811 3.558259
132 2 6 -0.043312 19.641525 37.580914 3.931128
133 2 79 1.139467 19.420403 37.986280 2.196745
134 2 6 -0.123165 19.570178 38.577532 4.911004
135 2 25 0.137797 19.392523 39.608071 4.633197
136 2 6 -0.200132 19.716666 38.247955 6.261929
137 2 25 0.120991 19.648329 39.034441 7.002873
138 2 61 -0.686299 17.874156 37.422559 1.709968
139 2 61 -0.686299 19.515291 39.687950 1.986038
140 2 61 -0.686299 20.656777 37.214423 1.290216
141 2 5 -0.167947 21.392697 35.884323 8.520517
142 2 26 0.053829 21.289838 35.599250 9.591417
143 2 26 0.053829 21.530706 34.942320 7.947098
144 2 5 0.061335 22.663282 36.775376 8.421623
145 2 26 0.066322 22.473390 37.682858 9.037957
146 2 6 0.022005 22.945264 37.187641 6.987583
147 2 6 -0.142215 23.222509 36.233297 5.990609
148 2 25 0.122111 23.248062 35.178540 6.230829
149 2 6 -0.138255 23.467168 36.635426 4.673540
150 2 25 0.125927 23.677433 35.886438 3.921859
151 2 6 -0.052124 23.435994 37.993731 4.334673
152 2 79 1.076745 23.736961 38.530231 2.649459
153 2 6 -0.138255 23.164099 38.946876 5.319808
154 2 25 0.125927 23.137850 39.998957 5.066800
155 2 6 -0.142215 22.921147 38.549289 6.636163
156 2 25 0.122111 22.709342 39.306537 7.380257
157 2 61 -0.647047 23.816056 37.161457 1.615454
158 2 61 -0.647047 22.447292 39.553105 2.168183
159 2 61 -0.647047 25.216184 39.395869 2.605753
160 2 5 -0.099102 23.856210 36.027830 9.089730
161 2 26 0.032456 23.519811 35.782538 10.121620
162 2 26 0.032456 24.046356 35.060764 8.576913
163 2 5 0.015778 25.181849 36.831906 9.234338
164 2 26 0.022425 24.931850 37.795793 9.731686
165 2 6 -0.035969 25.825791 37.083433 7.881578
166 2 6 -0.131756 26.238453 36.008777 7.069894
167 2 25 0.101496 26.091291 34.985690 7.388841
168 2 6 -0.139767 26.863219 36.244749 5.844982
169 2 25 0.14135 27.184802 35.406450 5.240577
170 2 6 -0.051918 27.084790 37.552942 5.408344
171 2 79 1.157597 27.922982 37.824222 3.847015
172 2 6 -0.139767 26.665072 38.629757 6.199023
173 2 25 0.14135 26.830130 39.647980 5.873512
174 2 6 -0.131756 26.038474 38.397303 7.427729
175 2 25 0.101496 25.731753 39.242627 8.030790
176 2 61 -0.691163 27.027798 37.041308 2.609424
177 2 61 -0.691163 28.028874 39.508735 3.531075
178 2 61 -0.691163 29.498838 37.155003 3.963549
179 2 5 -0.000586 26.151364 36.069094 10.194077
180 2 26 -0.010501 25.585936 35.875005 11.132358
181 2 26 -0.010501 26.415104 35.078258 9.766478
182 2 5 -0.032579 27.444969 36.828468 10.617821
183 2 26 0.137701 27.124428 37.787122 11.082694
184 2 6 -0.011695 28.356063 37.129380 9.418399
185 2 6 -0.095646 28.922506 36.096018 8.647014
186 2 25 0.111209 28.672511 35.062903 8.849559
187 2 6 -0.184492 29.884072 36.379170 7.664277
188 2 25 0.122822 30.350855 35.554658 7.140715
189 2 6 -0.022823 30.313043 37.700725 7.437744
190 2 5 0.164417 31.509080 37.980483 6.529868
191 2 6 -0.184492 29.664860 38.742474 8.123268
192 2 25 0.122822 29.959437 39.770558 7.956404
193 2 6 -0.095646 28.698037 38.460195 9.102237
194 2 25 0.111209 28.270218 39.281573 9.662884
195 2 26 -0.040461 31.175741 38.659281 5.716194
196 2 5 -0.072194 32.750412 38.626323 7.255560
197 2 26 0.004392 32.448484 39.615879 7.658699
198 2 26 0.004392 33.524103 38.818285 6.481416
199 2 5 0.060914 28.192674 36.008151 11.756948
200 2 26 -0.029666 27.463989 35.818183 12.574847
201 2 26 -0.029666 28.482211 35.015916 11.350164
202 2 5 -0.080441 29.445261 36.687025 12.428606
203 2 26 0.161633 29.097487 37.638260 12.889898
204 2 6 -0.033909 30.473450 36.964244 11.385728
205 2 6 -0.046469 31.061758 35.905981 10.669304
206 2 25 0.119472 30.781987 34.877541 10.854994
207 2 6 -0.154837 32.017574 36.168684 9.701988
208 2 25 0.088671 32.458142 35.342974 9.157070
209 2 6 -0.050237 32.395559 37.490047 9.441046
210 2 5 0.18978 33.416642 37.767255 8.390355
211 2 6 -0.154837 31.810526 38.548046 10.160729
212 2 25 0.088671 32.089673 39.576485 9.974355
213 2 6 -0.046469 30.854421 38.285331 11.127870
214 2 25 0.119472 30.412971 39.110921 11.672221
215 2 26 -0.043781 33.760858 36.815936 7.926318
216 2 5 -0.103886 34.669654 38.440590 9.056267
217 2 26 0.015134 34.387638 39.432496 9.469400
218 2 26 0.015134 35.402231 38.627731 8.240971
219 2 5 0.02372 30.112097 35.831070 13.567562
220 2 26 -0.032673 29.337138 35.641619 14.341065
221 2 26 -0.032673 30.413050 34.839891 13.167630
222 2 5 -0.070608 31.356381 36.474770 14.295207
223 2 26 0.047784 31.013492 37.422934 14.762859
224 2 6 -0.002343 32.561256 36.746789 13.393195
225 2 6 -0.14064 33.207540 35.701233 12.710691
226 2 25 0.145001 32.905939 34.674766 12.876014
227 2 6 -0.235918 34.176147 35.978206 11.730687
228 2 25 0.13736 34.593395 35.153949 11.166067
229 2 6 -0.03349 34.518705 37.307363 11.408241
230 2 5 0.334804 35.401019 37.603233 10.184666
231 2 6 -0.235918 33.967201 38.343464 12.187273
232 2 25 0.13736 34.217558 39.376007 11.982007
233 2 6 -0.14064 33.002376 38.065500 13.169634
234 2 25 0.145001 32.539170 38.892981 13.691986
235 2 26 -0.102684 35.711076 36.640856 9.720294
236 2 5 -0.093356 36.682207 38.320296 10.626002
237 2 26 -0.000797 37.225284 37.704719 11.374577
238 2 26 -0.000797 37.353024 38.475743 9.754181
239 2 26 -0.000556 17.913035 36.160635 8.282823
240 2 26 -0.040461 31.854444 37.035067 6.058390
241 2 26 0.047784 31.682984 35.797184 15.112784
242 2 26 -0.000797 36.453314 39.310750 11.072591
243 3 5 -0.051233 24.995047 2.188123 32.148777
244 3 26 -0.000556 24.608589 2.375440 33.173134
245 3 26 -0.000556 25.922249 2.784344 32.011701
246 3 5 0.030247 23.933520 2.556413 31.099778
247 3 26 0.028561 23.034344 1.942381 31.330490
248 3 6 0.077933 24.462051 2.193256 29.721207
249 3 6 -0.200132 25.607555 2.817493 29.189893
250 3 25 0.120991 26.124747 3.587891 29.746282
251 3 6 -0.123165 26.100587 2.446433 27.935720
252 3 25 0.137797 26.985566 2.932256 27.544915
253 3 6 -0.043312 25.462555 1.446622 27.194853
254 3 79 1.139467 26.130365 0.956317 25.602705
255 3 6 -0.123165 24.320670 0.823928 27.711423
256 3 25 0.137797 23.818861 0.046411 27.150706
257 3 6 -0.200132 23.823567 1.193792 28.964885
258 3 25 0.120991 22.944311 0.691557 29.348159
259 3 61 -0.686299 27.562306 0.051849 25.880365
260 3 61 -0.686299 24.981281 -0.009557 24.768575
261 3 61 -0.686299 26.476748 2.370233 24.693289
262 3 5 -0.167947 23.534528 4.048287 31.259526
263 3 26 0.053829 23.270290 4.182119 32.332345
264 3 26 0.053829 24.406555 4.706855 31.056840
265 3 5 0.061335 22.297268 4.512057 30.439621
266 3 26 0.066322 21.455616 3.834960 30.709086
267 3 6 0.022005 22.555109 4.428807 28.945454
268 3 6 -0.142215 23.569163 5.188595 28.332254
269 3 25 0.122111 24.184775 5.858592 28.917912
270 3 6 -0.138255 23.796768 5.086509 26.956023
271 3 25 0.125927 24.581494 5.678212 26.504015
272 3 6 -0.052124 23.017389 4.223900 26.175464
273 3 79 1.076745 23.299327 4.070357 24.410445
274 3 6 -0.138255 22.007158 3.468617 26.777031
275 3 25 0.125927 21.399989 2.799185 26.181395
276 3 6 -0.142215 21.775809 3.569273 28.150436
277 3 25 0.122111 20.989717 2.971032 28.593301
278 3 61 -0.647047 24.726350 4.922938 23.979541
279 3 61 -0.647047 23.475320 2.406770 24.032757
280 3 61 -0.647047 21.945627 4.717347 23.580843
281 3 5 -0.099102 21.886189 5.939150 30.911520
282 3 26 0.032456 21.733256 5.861920 32.010964
283 3 26 0.032456 22.719665 6.656717 30.754133
284 3 5 0.015778 20.564022 6.509063 30.318360
285 3 26 0.022425 19.771172 5.745304 30.482657
286 3 6 -0.035969 20.709268 6.813901 28.837190
287 3 6 -0.131756 21.648690 7.761543 28.386118
288 3 25 0.101496 22.292921 8.278347 29.084667
289 3 6 -0.139767 21.752895 8.065670 27.028520
290 3 25 0.14135 22.471937 8.805778 26.701892
291 3 6 -0.051918 20.925854 7.430216 26.099371
292 3 79 1.157597 21.057931 7.868981 24.366182
293 3 6 -0.139767 19.998722 6.474829 26.533572
294 3 25 0.14135 19.351871 5.974922 25.825294
295 3 6 -0.131756 19.891139 6.167264 27.893795
296 3 25 0.101496 19.160115 5.434636 28.211905
297 3 61 -0.691163 22.672429 7.584571 23.857805
298 3 61 -0.691163 19.966262 6.918083 23.442783
299 3 61 -0.691163 20.661080 9.530617 24.204212
300 3 5 -0.000586 20.137758 7.779649 31.122630
301 3 26 -0.010501 20.112179 7.485840 32.195371
302 3 26 -0.010501 20.908772 8.573437 31.024676
303 3 5 -0.032579 18.728497 8.362333 30.800012
304 3 26 0.137701 17.991475 7.544471 30.960547
305 3 6 -0.011695 18.626723 8.855324 29.348856
306 3 6 -0.095646 19.438097 9.901565 28.868455
307 3 25 0.111209 20.198859 10.338217 29.502036
308 3 6 -0.184492 19.217870 10.453987 27.596887
309 3 25 0.122822 19.813087 11.304183 27.289142
310 3 6 -0.022823 18.172596 9.983375 26.779718
311 3 5 0.164417 17.797512 10.726935 25.499313
312 3 6 -0.184492 17.439066 8.863759 27.208346
313 3 25 0.122822 16.641569 8.466963 26.593426
314 3 6 -0.095646 17.663213 8.306486 28.477996
315 3 25 0.111209 17.032142 7.490589 28.806747
316 3 26 -0.040461 17.884094 10.018095 24.648434
317 3 5 -0.072194 16.349179 11.349007 25.498745
318 3 26 0.004392 15.610623 10.524715 25.588085
319 3 26 0.004392 16.189287 11.815921 24.503169
320 3 5 0.060914 18.370430 9.498872 31.853416
321 3 26 -0.029666 18.484493 9.068204 32.872015
322 3 26 -0.029666 19.119038 10.314809 31.765856
323 3 5 -0.080441 16.919123 10.107684 31.789976
324 3 26 0.161633 16.203130 9.272567 31.958851
325 3 6 -0.033909 16.697838 10.714205 30.446555
326 3 6 -0.046469 17.488899 11.795094 30.016212
327 3 25 0.119472 18.269888 12.204605 30.642947
328 3 6 -0.154837 17.278617 12.355976 28.767416
329 3 25 0.088671 17.898552 13.185245 28.449884
330 3 6 -0.050237 16.276455 11.843646 27.936662
331 3 5 0.18978 16.062629 12.444223 26.588704
332 3 6 -0.154837 15.482312 10.765647 28.368894
333 3 25 0.088671 14.701977 10.355613 27.741762
334 3 6 -0.046469 15.692837 10.204536 29.617634
335 3 25 0.119472 15.073716 9.374618 29.934998
336 3 26 -0.043781 16.781847 13.276459 26.418606
337 3 5 -0.103886 14.617800 13.056508 26.522121
338 3 26 0.015134 13.862467 12.246991 26.612928
339 3 26 0.015134 14.502464 13.492083 25.505573
340 3 5 0.02372 16.628046 11.201658 32.882243
341 3 26 -0.032673 16.787128 10.732188 33.876753
342 3 26 -0.032673 17.366699 12.026288 32.796611
343 3 5 -0.070608 15.178755 11.827449 32.883212
344 3 26 0.047784 14.459331 10.998325 33.057190
345 3 6 -0.002343 14.801738 12.582954 31.607902
346 3 6 -0.14064 15.537474 13.703492 31.183911
347 3 25 0.145001 16.338200 14.093672 31.799157
348 3 6 -0.235918 15.316656 14.265362 29.914713
349 3 25 0.13736 15.957140 15.074458 29.586942
350 3 6 -0.03349 14.357060 13.717744 29.038777
351 3 5 0.334804 14.285399 14.189995 27.577613
352 3 6 -0.235918 13.532338 12.682002 29.520053
353 3 25 0.13736 12.773111 12.245876 28.884186
354 3 6 -0.14064 13.750764 12.123829 30.790453
355 3 25 0.145001 13.152191 11.274622 31.094909
356 3 26 -0.102684 15.030218 15.001815 27.422248
357 3 5 -0.093356 12.903915 14.789201 27.289770
358 3 26 -0.000797 12.695970 15.623568 27.993206
359 3 26 -0.000797 12.870218 15.192750 26.255245
360 3 26 -0.000556 25.250063 1.109187 32.071645
361 3 26 -0.040461 18.515571 11.556203 25.320194
362 3 26 0.047784 15.092903 12.530363 33.739228
363 3 26 -0.000797 12.105991 14.024057 27.393239
364 4 5 -0.051233 31.862938 20.350451 2.934167
365 4 26 -0.000556 30.996328 19.657498 2.883691
366 4 26 -0.000556 32.138057 20.487188 4.001681
367 4 5 0.030247 31.515402 21.692561 2.270214
368 4 26 0.028561 31.221196 21.460300 1.222227
369 4 6 0.077933 32.754440 22.573737 2.271272
370 4 6 -0.200132 33.344860 23.003125 3.475920
371 4 25 0.120991 32.913432 22.730875 4.430027
372 4 6 -0.123165 34.504321 23.783563 3.459170
373 4 25 0.137797 34.948396 24.100012 4.394370
374 4 6 -0.043312 35.094033 24.144237 2.243545
375 4 79 1.139467 36.603381 25.115405 2.240795
376 4 6 -0.123165 34.512316 23.727212 1.040969
377 4 25 0.137797 34.959693 23.995960 0.093141
378 4 6 -0.200132 33.351441 22.947928 1.053822
379 4 25 0.120991 32.924655 22.629158 0.111237
380 4 61 -0.686299 37.892627 24.099218 2.741614
381 4 61 -0.686299 36.905800 25.705880 0.656825
382 4 61 -0.686299 36.413241 26.429257 3.328828
383 4 5 -0.167947 30.282417 22.321361 2.973605
384 4 26 0.053829 29.498956 21.530951 2.984245
385 4 26 0.053829 30.518762 22.556484 4.033832
386 4 5 0.061335 29.653665 23.555782 2.267195
387 4 26 0.066322 29.413626 23.247214 1.224786
388 4 6 0.022005 30.614465 24.731357 2.238316
389 4 6 -0.142215 31.082956 25.325611 3.425318
390 4 25 0.122111 30.758280 24.957862 4.389795
391 4 6 -0.138255 31.977314 26.399758 3.374627
392 4 25 0.125927 32.326248 26.841981 4.298154
393 4 6 -0.052124 32.416787 26.892481 2.139765
394 4 79 1.076745 33.571450 28.262694 2.052441
395 4 6 -0.138255 31.953754 26.309182 0.957282
396 4 25 0.125927 32.288288 26.683503 -0.001648
397 4 6 -0.142215 31.059392 25.237812 1.003931
398 4 25 0.122111 30.718198 24.800890 0.074066
399 4 61 -0.647047 34.145134 28.632829 3.628149
400 4 61 -0.647047 34.881767 27.803494 1.045789
401 4 61 -0.647047 32.764646 29.617258 1.378971
402 4 5 -0.099102 28.295592 23.891589 2.953592
403 4 26 0.032456 27.695454 22.955559 2.911013
404 4 26 0.032456 28.449585 24.124182 4.029018
405 4 5 0.015778 27.436045 25.001087 2.279083
406 4 26 0.022425 27.331609 24.731404 1.204236
407 4 6 -0.035969 28.085075 26.367031 2.423456
408 4 6 -0.131756 28.311876 26.925198 3.696647
409 4 25 0.101496 28.041164 26.385338 4.594064
410 4 6 -0.139767 28.873968 28.195759 3.823731
411 4 25 0.14135 29.029201 28.613562 4.810043
412 4 6 -0.051918 29.220754 28.928953 2.686506
413 4 79 1.157597 29.907039 30.573634 2.881297
414 4 6 -0.139767 29.014697 28.378574 1.415486
415 4 25 0.14135 29.278416 28.934943 0.526168
416 4 6 -0.131756 28.451303 27.105132 1.283915
417 4 25 0.101496 28.288454 26.701101 0.292666
418 4 61 -0.691163 31.326578 30.457373 3.839069
419 4 61 -0.691163 30.280499 31.232089 1.340005
420 4 61 -0.691163 28.733973 31.552723 3.662361
421 4 5 -0.000586 25.996621 24.986784 2.888011
422 4 26 -0.010501 25.619849 23.944158 2.794602
423 4 26 -0.010501 26.036001 25.218667 3.973753
424 4 5 -0.032579 24.939715 25.893070 2.187142
425 4 26 0.137701 24.904348 25.587928 1.117792
426 4 6 -0.011695 25.307584 27.381766 2.274932
427 4 6 -0.095646 25.410580 28.042503 3.514510
428 4 25 0.111209 25.292836 27.492088 4.438646
429 4 6 -0.184492 25.579225 29.434862 3.573231
430 4 25 0.122822 25.581991 29.917891 4.541993
431 4 6 -0.022823 25.635450 30.202650 2.394596
432 4 5 0.164417 25.597220 31.728058 2.462976
433 4 6 -0.184492 25.650919 29.533260 1.158876
434 4 25 0.122822 25.712480 30.095019 0.235722
435 4 6 -0.095646 25.488596 28.139361 1.099664
436 4 25 0.111209 25.432389 27.662976 0.129142
437 4 26 -0.040461 26.509863 32.120608 1.966052
438 4 5 -0.072194 24.330303 32.386100 1.794738
439 4 26 0.004392 24.333735 32.139530 0.712104
440 4 26 0.004392 24.449107 33.488167 1.872697
441 4 5 0.060914 23.498326 25.587930 2.786206
442 4 26 -0.029666 23.317760 24.494271 2.700571
443 4 26 -0.029666 23.505249 25.826624 3.871016
444 4 5 -0.080441 22.269291 26.294767 2.100039
445 4 26 0.161633 22.253129 25.969292 1.035900
446 4 6 -0.033909 22.440530 27.772931 2.185624
447 4 6 -0.046469 22.484789 28.411467 3.438463
448 4 25 0.119472 22.399416 27.849567 4.359018
449 4 6 -0.154837 22.642929 29.785432 3.512687
450 4 25 0.088671 22.678521 30.261061 4.484975
451 4 6 -0.050237 22.757827 30.535018 2.337152
452 4 5 0.18978 22.939543 32.012470 2.423870
453 4 6 -0.154837 22.708968 29.896956 1.084133
454 4 25 0.088671 22.795260 30.458792 0.163676
455 4 6 -0.046469 22.551144 28.522872 1.009933
456 4 25 0.119472 22.516533 28.046885 0.037805
457 4 26 -0.043781 22.960052 32.336866 3.488375
458 4 5 -0.103886 21.713952 32.721827 1.744462
459 4 26 0.015134 21.697362 32.484969 0.659237
460 4 26 0.015134 21.889719 33.816238 1.832610
461 4 5 0.02372 20.875348 25.919804 2.725240
462 4 26 -0.032673 20.758139 24.817732 2.644877
463 4 26 -0.032673 20.869903 26.163320 3.808580
464 4 5 -0.070608 19.604807 26.578428 2.058909
465 4 26 0.047784 19.580324 26.252139 0.996731
466 4 6 -0.002343 19.555558 28.105267 2.134283
467 4 6 -0.14064 19.538549 28.770510 3.372768
468 4 25 0.145001 19.482830 28.204691 4.294003
469 4 6 -0.235918 19.699890 30.165177 3.437535
470 4 25 0.13736 19.765517 30.635229 4.410693
471 4 6 -0.03349 19.885116 30.926630 2.265420
472 4 5 0.334804 20.289117 32.406776 2.360849
473 4 6 -0.235918 19.767100 30.273314 1.022921
474 4 25 0.13736 19.886616 30.825515 0.100019
475 4 6 -0.14064 19.601436 28.879884 0.958941
476 4 25 0.145001 19.597665 28.400998 -0.012032
477 4 26 -0.102684 20.330343 32.702754 3.432596
478 4 5 -0.093356 19.221701 33.283244 1.695397
479 4 26 -0.000797 18.232410 33.104641 2.168300
480 4 26 -0.000797 19.476095 34.357340 1.821214
481 4 26 -0.000556 32.714740 19.871640 2.404773
482 4 26 -0.040461 25.623364 32.059178 3.523663
483 4 26 0.047784 18.693632 26.178660 2.553043
484 4 26 -0.000797 19.145604 33.066415 0.609105
485 5 5 -0.051233 3.988967 2.635139 12.020229
486 5 26 -0.000556 4.502119 2.524285 11.041387
487 5 26 -0.000556 3.782210 3.714051 12.185075
488 5 5 0.030247 4.855607 2.053342 13.148645
489 5 26 0.028561 5.041034 0.987382 12.887633
490 5 6 0.077933 4.078340 2.133789 14.452896
491 5 6 -0.200132 3.700107 3.374159 15.002959
492 5 25 0.120991 3.975451 4.300702 14.516880
493 5 6 -0.123165 2.955094 3.428881 16.184346
494 5 25 0.137797 2.667699 4.390460 16.590190
495 5 6 -0.043312 2.573241 2.249988 16.832414
496 5 79 1.139467 1.585129 2.337335 18.328178
497 5 6 -0.123165 2.948490 1.012644 16.297008
498 5 25 0.137797 2.657082 0.092425 16.785914
499 5 6 -0.200132 3.695299 0.954083 15.116362
500 5 25 0.120991 3.966014 -0.014704 14.715872
501 5 61 -0.686299 -0.009589 2.794443 17.888248
502 5 61 -0.686299 1.562488 0.800637 19.094420
503 5 61 -0.686299 2.279375 3.504568 19.377830
504 5 5 -0.167947 6.230640 2.773646 13.177728
505 5 26 0.053829 6.627765 2.718957 12.139474
506 5 26 0.053829 6.099175 3.850961 13.417174
507 5 5 0.061335 7.311400 2.137447 14.097157
508 5 26 0.066322 7.416394 1.073087 13.788022
509 5 6 0.022005 6.907880 2.202077 15.559670
510 5 6 -0.142215 6.707961 3.433321 16.212102
511 5 25 0.122111 6.846972 4.365950 15.681303
512 5 6 -0.138255 6.324441 3.468423 17.556690
513 5 25 0.125927 6.175005 4.424787 18.039654
514 5 6 -0.052124 6.133552 2.276182 18.265858
515 5 79 1.076745 5.631926 2.298597 19.988132
516 5 6 -0.138255 6.332861 1.050255 17.625325
517 5 25 0.125927 6.187435 0.123764 18.165733
518 5 6 -0.142215 6.717546 1.011300 16.283538
519 5 25 0.122111 6.862106 0.049095 15.808958
520 5 61 -0.647047 5.241456 3.905048 20.452691
521 5 61 -0.647047 4.257635 1.288094 20.165193
522 5 61 -0.647047 6.923772 1.699835 20.943096
523 5 5 -0.099102 8.682622 2.819568 13.809527
524 5 26 0.032456 8.853740 2.705653 12.715967
525 5 26 0.032456 8.625311 3.910399 14.012399
526 5 5 0.015778 9.923695 2.202949 14.519657
527 5 26 0.022425 9.920684 1.111186 14.302914
528 5 6 -0.035969 9.880585 2.447150 16.018455
529 5 6 -0.131756 9.886315 3.757695 16.534635
530 5 25 0.101496 9.907072 4.613243 15.873047
531 5 6 -0.139767 9.884350 3.976903 17.912448
532 5 25 0.14135 9.901610 4.990839 18.290739
533 5 6 -0.051918 9.874460 2.895981 18.797109
534 5 79 1.157597 9.909414 3.209209 20.561924
535 5 6 -0.139767 9.852882 1.588480 18.296266
536 5 25 0.14135 9.845113 0.741957 18.969555
537 5 6 -0.131756 9.854917 1.364585 16.915597
538 5 25 0.101496 9.850236 0.346480 16.547125
539 5 61 -0.691163 8.554720 4.182864 20.965331
540 5 61 -0.691163 9.848848 1.720775 21.416039
541 5 61 -0.691163 11.370429 4.030776 20.929651
542 5 5 -0.000586 11.228608 2.783637 13.884880
543 5 26 -0.010501 11.152841 2.616129 12.787633
544 5 26 -0.010501 11.275745 3.882650 14.040139
545 5 5 -0.032579 12.568345 2.124001 14.331656
546 5 26 0.137701 12.487777 1.036671 14.110083
547 5 6 -0.011695 12.832556 2.314630 15.832690
548 5 6 -0.095646 12.993300 3.596050 16.394703
549 5 25 0.111209 12.869617 4.480329 15.783474
550 5 6 -0.184492 13.401090 3.747848 17.729326
551 5 25 0.122822 13.584334 4.745750 18.106735
552 5 6 -0.022823 13.671349 2.622615 18.530981
553 5 5 0.164417 14.322030 2.788938 19.902825
554 5 6 -0.184492 13.398714 1.346618 18.008650
555 5 25 0.122822 13.578361 0.463042 18.607478
556 5 6 -0.095646 12.984524 1.194345 16.675208
557 5 25 0.111209 12.852862 0.194154 16.282399
558 5 26 -0.040461 13.650703 2.335005 20.662568
559 5 5 -0.072194 15.753234 2.141999 20.036124
560 5 26 0.004392 15.660973 1.045908 19.884545
561 5 26 0.004392 16.089126 2.293293 21.084471
562 5 5 0.060914 13.757632 2.675976 13.431373
563 5 26 -0.029666 13.481704 2.516455 12.366270
564 5 26 -0.029666 13.837218 3.773915 13.579802
565 5 5 -0.080441 15.174075 2.014991 13.625683
566 5 26 0.161633 15.067674 0.931890 13.392966
567 5 6 -0.033909 15.613904 2.199196 15.037857
568 5 6 -0.046469 15.819274 3.491351 15.555014
569 5 25 0.119472 15.661376 4.371896 14.946614
570 5 6 -0.154837 16.229090 3.657236 16.867580
571 5 25 0.088671 16.379285 4.658767 17.251258
572 5 6 -0.050237 16.438297 2.534974 17.676113
573 5 5 0.18978 16.868244 2.720452 19.091792
574 5 6 -0.154837 16.237328 1.242587 17.157542
575 5 25 0.088671 16.394359 0.362152 17.766248
576 5 6 -0.046469 15.827175 1.076723 15.844994
577 5 25 0.119472 15.675937 0.075345 15.461375
578 5 26 -0.043781 16.970230 3.803926 19.325256
579 5 5 -0.103886 18.282491 2.066435 19.289344
580 5 26 0.015134 18.212493 0.968027 19.138712
581 5 26 0.015134 18.563088 2.228426 20.353028
582 5 5 0.02372 16.291497 2.589378 12.679111
583 5 26 -0.032673 15.954167 2.435714 11.631563
584 5 26 -0.032673 16.384358 3.685940 12.827044
585 5 5 -0.070608 17.726232 1.944313 12.811351
586 5 26 0.047784 17.627093 0.862966 12.574401
587 5 6 -0.002343 18.387502 2.117510 14.179587
588 5 6 -0.14064 18.659844 3.395969 14.697328
589 5 25 0.145001 18.473231 4.277472 14.097281
590 5 6 -0.235918 19.075189 3.553816 16.030704
591 5 25 0.13736 19.195648 4.556397 16.421363
592 5 6 -0.03349 19.224830 2.437002 16.878235
593 5 5 0.334804 19.452463 2.635351 18.385548
594 5 6 -0.235918 19.080851 1.152877 16.317121
595 5 25 0.13736 19.203623 0.269978 16.930614
596 5 6 -0.14064 18.669952 0.995818 14.983075
597 5 25 0.145001 18.489324 -0.004041 14.609188
598 5 26 -0.102684 19.523946 3.724585 18.600966
599 5 5 -0.093356 20.789420 2.008931 18.798518
600 5 26 -0.000797 21.617539 2.451372 18.204635
601 5 26 -0.000797 20.989525 2.208607 19.872910
602 5 26 -0.000556 3.021509 2.091282 11.962508
603 5 26 -0.040461 14.421616 3.869141 20.144953
604 5 26 0.047784 18.393327 2.395022 12.045800
605 5 26 -0.000797 20.781955 0.909684 18.642206
606 6 5 -0.051233 36.404000 29.112137 23.706852
607 6 26 -0.000556 36.422638 28.830149 24.781040
608 6 26 -0.000556 35.343535 29.199343 23.387819
609 6 5 0.030247 37.156734 28.068736 22.865674
610 6 26 0.028561 38.191917 28.021964 23.271863
611 6 6 0.077933 37.194084 28.540476 21.420768
612 6 6 -0.200132 36.010895 28.700364 20.673343
613 6 25 0.120991 35.047635 28.468599 21.108066
614 6 6 -0.123165 36.060744 29.168895 19.357398
615 6 25 0.137797 35.141333 29.291583 18.799213