LAMMPS Description

5622  atoms
4572  bonds
5346  angles
6480  dihedrals
1188  impropers

87  atom types
840  bond types
4614  angle types
985  dihedral types
38  improper types

-0.5 40.5 xlo xhi
-0.5 40.5 ylo yhi
-0.5 40.5 zlo zhi

Masses

1 12.01
2 12.01
3 12.01
4 12.01
5 12.01
6 12.01
7 12.01
8 12.01
9 12.01
10 12.01
11 12.01
12 12.01
13 12.01
14 12.01
15 12.01
16 12.01
17 12.01
18 12.01
19 12.01
20 1.008
21 1.008
22 1.008
23 1.008
24 1.008
25 1.008
26 1.008
27 1.008
28 1.008
29 1.008
30 1.008
31 1.008
32 1.008
33 19.00
34 35.45
35 79.90
36 126.9
37 14.01
38 14.01
39 14.01
40 14.01
41 14.01
42 14.01
43 14.01
44 14.01
45 14.01
46 14.01
47 14.01
48 14.01
49 14.01
50 14.01
51 14.01
52 14.01
53 14.01
54 14.01
55 14.01
56 14.01
57 14.01
58 14.01
59 14.01
60 14.01
61 16.00
62 16.00
63 16.00
64 16.00
65 30.97
66 30.97
67 30.97
68 30.97
69 30.97
70 30.97
71 30.97
72 30.97
73 30.97
74 30.97
75 30.97
76 32.06
77 32.06
78 32.06
79 32.06
80 32.06
81 32.06
82 32.06
83 32.06
84 24.305
85 40.08
86 19.02
87 35.45

Atoms

1 1 5 -0.051233 20.695147 24.048867 22.287917
2 1 26 -0.000556 20.136770 23.156781 22.643081
3 1 26 -0.000556 21.584890 24.185014 22.938914
4 1 5 0.030247 19.790552 25.291471 22.310658
5 1 26 0.028561 18.914747 25.057104 21.665042
6 1 6 0.077933 20.558663 26.465984 21.725669
7 1 6 -0.200132 21.724256 26.958157 22.344784
8 1 25 0.120991 22.086380 26.521727 23.266176
9 1 6 -0.123165 22.438112 28.015874 21.774382
10 1 25 0.137797 23.335196 28.377935 22.260276
11 1 6 -0.043312 22.003809 28.595759 20.578261
12 1 79 1.139467 22.952737 29.928342 19.839977
13 1 6 -0.123165 20.844022 28.117647 19.957942
14 1 25 0.137797 20.498265 28.554509 19.030390
15 1 6 -0.200132 20.126361 27.060917 20.526592
16 1 25 0.120991 19.237349 26.701646 20.023790
17 1 61 -0.686299 24.385636 29.257906 19.174450
18 1 61 -0.686299 22.027808 30.677197 18.601914
19 1 61 -0.686299 23.332982 31.073699 21.060531
20 1 5 -0.167947 19.260200 25.527192 23.750645
21 1 26 0.053829 18.818379 24.559308 24.077245
22 1 26 0.053829 20.101452 25.748294 24.442478
23 1 5 0.061335 18.138803 26.594763 23.895216
24 1 26 0.066322 17.318152 26.300857 23.202683
25 1 6 0.022005 18.637959 27.981274 23.528639
26 1 6 -0.142215 19.677093 28.601150 24.248048
27 1 25 0.122111 20.138946 28.100253 25.088681
28 1 6 -0.138255 20.129030 29.873914 23.884647
29 1 25 0.125927 20.929280 30.332724 24.449724
30 1 6 -0.052124 19.551652 30.542556 22.798208
31 1 79 1.076745 20.123152 32.171208 22.309089
32 1 6 -0.138255 18.517802 29.934376 22.081149
33 1 25 0.125927 18.065813 30.443843 21.239885
34 1 6 -0.142215 18.062740 28.664541 22.442162
35 1 25 0.122111 17.263100 28.213276 21.868666
36 1 61 -0.647047 21.532606 32.578321 23.201651
37 1 61 -0.647047 20.481797 32.138412 20.632353
38 1 61 -0.647047 18.874937 33.305429 22.617051
39 1 5 -0.099102 17.551465 26.516586 25.336463
40 1 26 0.032456 17.230792 25.460207 25.475614
41 1 26 0.032456 18.343092 26.712593 26.090959
42 1 5 0.015778 16.302236 27.401084 25.622570
43 1 26 0.022425 15.552961 27.182392 24.829039
44 1 6 -0.035969 16.659336 28.877690 25.623636
45 1 6 -0.131756 17.584954 29.393679 26.551531
46 1 25 0.101496 18.068418 28.745595 27.270099
47 1 6 -0.139767 17.881936 30.756672 26.573397
48 1 25 0.14135 18.586323 31.136956 27.301882
49 1 6 -0.051918 17.264360 31.626158 25.671339
50 1 79 1.157597 17.638768 33.377675 25.748221
51 1 6 -0.139767 16.354119 31.122990 24.733707
52 1 25 0.14135 15.868365 31.784609 24.029233
53 1 6 -0.131756 16.053651 29.757168 24.708686
54 1 25 0.101496 15.338273 29.388448 23.984383
55 1 61 -0.691163 19.330560 33.578729 25.540000
56 1 61 -0.691163 16.783511 34.207963 24.512191
57 1 61 -0.691163 17.149256 33.961418 27.285876
58 1 5 -0.000586 15.658519 26.969400 26.979853
59 1 26 -0.010501 15.483738 25.872486 26.916740
60 1 26 -0.010501 16.373430 27.133876 27.814123
61 1 5 -0.032579 14.279312 27.607980 27.325721
62 1 26 0.137701 13.589652 27.373001 26.484873
63 1 6 -0.011695 14.374344 29.132285 27.489164
64 1 6 -0.095646 15.171218 29.716534 28.492847
65 1 25 0.111209 15.785796 29.096883 29.132514
66 1 6 -0.184492 15.116456 31.097480 28.738905
67 1 25 0.122822 15.687675 31.501505 29.564917
68 1 6 -0.022823 14.253780 31.926364 27.996894
69 1 5 0.164417 14.033656 33.380272 28.410058
70 1 6 -0.184492 13.547321 31.364745 26.919477
71 1 25 0.122822 12.890606 31.980455 26.318476
72 1 6 -0.095646 13.606613 29.984015 26.668726
73 1 25 0.111209 12.994166 29.572419 25.876569
74 1 26 -0.040461 14.308298 34.030161 27.552059
75 1 5 -0.072194 12.561493 33.722501 28.857562
76 1 26 0.004392 11.882200 33.554967 27.995358
77 1 26 0.004392 12.528372 34.809664 29.084994
78 1 5 0.060914 13.672918 26.896452 28.612424
79 1 26 -0.029666 13.654526 25.801603 28.420083
80 1 26 -0.029666 14.362448 27.058994 29.467973
81 1 5 -0.080441 12.208887 27.296770 29.033526
82 1 26 0.161633 11.539885 27.046945 28.179940
83 1 6 -0.033909 12.160519 28.759283 29.316958
84 1 6 -0.046469 12.926786 29.305845 30.362613
85 1 25 0.119472 13.564407 28.683893 30.976662
86 1 6 -0.154837 12.877532 30.665331 30.622749
87 1 25 0.088671 13.476219 31.070656 31.429049
88 1 6 -0.050237 12.062597 31.491953 29.842018
89 1 5 0.18978 12.022744 32.956468 30.119530
90 1 6 -0.154837 11.292777 30.944646 28.799233
91 1 25 0.088671 10.655902 31.566772 28.184664
92 1 6 -0.046469 11.342296 29.585128 28.538889
93 1 25 0.119472 10.744487 29.179706 27.732011
94 1 26 -0.043781 12.695331 33.206376 30.970409
95 1 5 -0.103886 10.565330 33.359689 30.544047
96 1 26 0.015134 9.868180 33.196394 29.694691
97 1 26 0.015134 10.581773 34.453838 30.741449
98 1 5 0.02372 11.665405 26.528865 30.294280
99 1 26 -0.032673 11.698093 25.442271 30.064054
100 1 26 -0.032673 12.344175 26.692885 31.157602
101 1 5 -0.070608 10.191775 26.870579 30.745617
102 1 26 0.047784 9.518129 26.617653 29.898554
103 1 6 -0.002343 9.968034 28.322517 31.171248
104 1 6 -0.14064 10.675853 28.879562 32.250773
105 1 25 0.145001 11.336190 28.261605 32.845763
106 1 6 -0.235918 10.619420 30.260420 32.506446
107 1 25 0.13736 11.241487 30.668233 33.293220
108 1 6 -0.03349 9.856263 31.116772 31.686552
109 1 5 0.334804 9.984092 32.641878 31.831003
110 1 6 -0.235918 9.045322 30.535895 30.691810
111 1 25 0.13736 8.432581 31.157655 30.052341
112 1 6 -0.14064 9.098930 29.155039 30.439723
113 1 25 0.145001 8.524859 28.754878 29.613618
114 1 26 -0.102684 10.681054 32.869428 32.667908
115 1 5 -0.093356 8.625419 33.246734 32.203232
116 1 26 -0.000797 8.245491 32.784125 33.139117
117 1 26 -0.000797 8.727498 34.339642 32.374583
118 1 26 -0.000556 21.039547 23.846041 21.250934
119 1 26 -0.040461 14.706770 33.638380 29.256035
120 1 26 0.047784 9.917472 26.214306 31.599014
121 1 26 -0.000797 7.880987 33.087112 31.395039
122 2 5 -0.051233 20.738694 11.927152 11.412995
123 2 26 -0.000556 21.448657 12.215875 12.216945
124 2 26 -0.000556 20.609224 12.796488 10.733681
125 2 5 0.030247 19.396096 11.484940 12.016944
126 2 26 0.028561 19.621691 10.639308 12.704544
127 2 6 0.077933 18.489709 11.004923 10.894565
128 2 6 -0.200132 18.062845 11.878724 9.875544
129 2 25 0.120991 18.355403 12.920321 9.882930
130 2 6 -0.123165 17.258589 11.412442 8.831768
131 2 25 0.137797 16.944388 12.096211 8.053515
132 2 6 -0.043312 16.871220 10.069522 8.785904
133 2 79 1.139467 15.869263 9.479111 7.418863
134 2 6 -0.123165 17.285571 9.194360 9.796299
135 2 25 0.137797 16.996261 8.152033 9.771738
136 2 6 -0.200132 18.088656 9.657664 10.842952
137 2 25 0.120991 18.404733 8.960141 11.608317
138 2 61 -0.686299 16.864700 9.399773 6.023004
139 2 61 -0.686299 15.253620 7.918897 7.787362
140 2 61 -0.686299 14.572826 10.576974 7.173655
141 2 5 -0.167947 18.801315 12.636594 12.871537
142 2 26 0.053829 19.607736 12.945963 13.573426
143 2 26 0.053829 18.574196 13.516744 12.232023
144 2 5 0.061335 17.571644 12.266463 13.748495
145 2 26 0.066322 17.872478 11.402692 14.383198
146 2 6 0.022005 16.376301 11.876560 12.896980
147 2 6 -0.142215 15.786912 12.786398 11.998977
148 2 25 0.122111 16.172872 13.792737 11.903133
149 2 6 -0.138255 14.694071 12.401273 11.215641
150 2 25 0.125927 14.255947 13.115026 10.530935
151 2 6 -0.052124 14.177548 11.103679 11.316894
152 2 79 1.076745 12.782930 10.586112 10.314136
153 2 6 -0.138255 14.755928 10.195996 12.208236
154 2 25 0.125927 14.363260 9.190900 12.292916
155 2 6 -0.142215 15.845944 10.577477 12.993240
156 2 25 0.122111 16.278533 9.854913 13.673483
157 2 61 -0.647047 12.420125 11.805187 9.160362
158 2 61 -0.647047 13.202910 9.129027 9.513097
159 2 61 -0.647047 11.437210 10.320022 11.342519
160 2 5 -0.099102 17.272139 13.447177 14.720339
161 2 26 0.032456 18.219728 13.631329 15.273778
162 2 26 0.032456 17.049427 14.374291 14.150064
163 2 5 0.015778 16.172487 13.196600 15.793999
164 2 26 0.022425 16.431268 12.249381 16.318156
165 2 6 -0.035969 14.795330 13.094291 15.160866
166 2 6 -0.131756 14.248027 14.179479 14.448944
167 2 25 0.101496 14.804131 15.099412 14.328268
168 2 6 -0.139767 12.967804 14.094443 13.901018
169 2 25 0.14135 12.558834 14.943056 13.368040
170 2 6 -0.051918 12.213963 12.928132 14.051209
171 2 79 1.157597 10.557990 12.862390 13.367586
172 2 6 -0.139767 12.753080 11.836746 14.743376
173 2 25 0.14135 12.180714 10.927357 14.867427
174 2 6 -0.131756 14.036155 11.918141 15.294259
175 2 25 0.101496 14.431455 11.068336 15.836387
176 2 61 -0.691163 10.656594 13.166394 11.681230
177 2 61 -0.691163 9.873441 11.314006 13.654835
178 2 61 -0.691163 9.612725 14.067835 14.140978
179 2 5 -0.000586 16.223730 14.332328 16.866583
180 2 26 -0.010501 17.272678 14.378109 17.234500
181 2 26 -0.010501 16.004208 15.314939 16.397071
182 2 5 -0.032579 15.330972 14.133019 18.128677
183 2 26 0.137701 15.623846 13.162386 18.586899
184 2 6 -0.011695 13.836195 14.094289 17.777403
185 2 6 -0.095646 13.188491 15.200447 17.193770
186 2 25 0.111209 13.752324 16.083154 16.922167
187 2 6 -0.184492 11.793768 15.213319 17.035218
188 2 25 0.122822 11.322513 16.108408 16.649784
189 2 6 -0.022823 11.010816 14.126554 17.468539
190 2 5 0.164417 9.487453 14.233988 17.497343
191 2 6 -0.184492 11.664783 12.976145 17.942052
192 2 25 0.122822 11.090776 12.117139 18.264851
193 2 6 -0.095646 13.060908 12.960253 18.094992
194 2 25 0.111209 13.526599 12.085161 18.530149
195 2 26 -0.040461 9.070254 13.419835 16.867228
196 2 5 -0.072194 8.847580 14.144167 18.935097
197 2 26 0.004392 9.080942 13.146909 19.363961
198 2 26 0.004392 7.744324 14.189075 18.810378
199 2 5 0.060914 15.672889 15.254887 19.202965
200 2 26 -0.029666 16.768917 15.227938 19.387428
201 2 26 -0.029666 15.447215 16.249822 18.763636
202 2 5 -0.080441 14.983240 15.134368 20.613932
203 2 26 0.161633 15.296110 14.160394 21.052193
204 2 6 -0.033909 13.503008 15.172449 20.443400
205 2 6 -0.046469 12.878867 16.313926 19.907894
206 2 25 0.119472 13.453473 17.180122 19.607937
207 2 6 -0.154837 11.502937 16.344858 19.752467
208 2 25 0.088671 11.038446 17.229837 19.335461
209 2 6 -0.050237 10.737012 15.236996 20.130574
210 2 5 0.18978 9.257291 15.271889 19.949986
211 2 6 -0.154837 11.360773 14.097211 20.670371
212 2 25 0.088671 10.786213 13.230735 20.969446
213 2 6 -0.046469 12.736815 14.066172 20.825497
214 2 25 0.119472 13.201645 13.180938 21.241537
215 2 26 -0.043781 8.945414 16.244430 19.507583
216 2 5 -0.103886 8.565132 15.156222 21.355117
217 2 26 0.015134 8.789166 14.164828 21.803489
218 2 26 0.015134 7.468483 15.187415 21.174048
219 2 5 0.02372 15.394302 16.259745 21.633298
220 2 26 -0.032673 16.497500 16.211995 21.757523
221 2 26 -0.032673 15.164043 17.258398 21.205949
222 2 5 -0.070608 14.753944 16.173137 23.073610
223 2 26 0.047784 15.067823 15.204286 23.518688
224 2 6 -0.002343 13.229461 16.291431 23.109708
225 2 6 -0.14064 12.579705 17.444910 22.636436
226 2 25 0.145001 13.157629 18.299732 22.309004
227 2 6 -0.235918 11.182900 17.466297 22.482171
228 2 25 0.13736 10.723378 18.339892 22.037241
229 2 6 -0.03349 10.403707 16.333527 22.794688
230 2 5 0.334804 8.916828 16.287103 22.407145
231 2 6 -0.235918 11.044267 15.230875 23.393349
232 2 25 0.13736 10.478626 14.348621 23.662859
233 2 6 -0.14064 12.439935 15.211970 23.551271
234 2 25 0.145001 12.907042 14.315341 23.938574
235 2 26 -0.102684 8.633023 17.257399 21.942467
236 2 5 -0.093356 8.054523 16.123866 23.664198
237 2 26 -0.000797 8.259122 16.950969 24.377129
238 2 26 -0.000797 6.977020 16.157548 23.395715
239 2 26 -0.000556 21.193466 11.090894 10.839463
240 2 26 -0.040461 9.168693 15.200899 17.051411
241 2 26 0.047784 15.178296 16.984007 23.703403
242 2 26 -0.000797 8.259743 15.155800 24.167753
243 3 5 -0.051233 2.203167 10.645484 21.221906
244 3 26 -0.000556 2.545576 9.705864 20.738568
245 3 26 -0.000556 1.148361 10.826222 20.924095
246 3 5 0.030247 3.108168 11.818955 20.813478
247 3 26 0.028561 4.142501 11.541133 21.116382
248 3 6 0.077933 2.668751 13.061785 21.571088
249 3 6 -0.200132 1.388499 13.618156 21.382540
250 3 25 0.120991 0.695922 13.182469 20.674667
251 3 6 -0.123165 0.987794 14.740234 22.113356
252 3 25 0.137797 -0.001854 15.151483 21.960349
253 3 6 -0.043312 1.854278 15.321676 23.044335
254 3 79 1.139467 1.310310 16.739459 24.001046
255 3 6 -0.123165 3.130348 14.779774 23.235336
256 3 25 0.137797 3.809908 15.217240 23.954759
257 3 6 -0.200132 3.535281 13.658458 22.504748
258 3 25 0.120991 4.523630 13.251054 22.676258
259 3 61 -0.686299 0.175984 16.192758 25.167251
260 3 61 -0.686299 2.658536 17.455442 24.787643
261 3 61 -0.686299 0.583041 17.873541 22.937506
262 3 5 -0.167947 3.099177 11.974600 19.268779
263 3 26 0.053829 3.338940 10.968576 18.857560
264 3 26 0.053829 2.079711 12.235394 18.911148
265 3 5 0.061335 4.152583 12.954534 18.678687
266 3 26 0.066322 5.148986 12.622649 19.048124
267 3 6 0.022005 3.897420 14.383192 19.125651
268 3 6 -0.142215 2.706248 15.054947 18.791809
269 3 25 0.122111 1.946067 14.564449 18.198170
270 3 6 -0.138255 2.487507 16.366725 19.224969
271 3 25 0.125927 1.565157 16.865225 18.958537
272 3 6 -0.052124 3.452982 17.023262 19.998024
273 3 79 1.076745 3.188065 18.702042 20.572371
274 3 6 -0.138255 4.639049 16.363478 20.330941
275 3 25 0.125927 5.390749 16.863246 20.928230
276 3 6 -0.142215 4.861723 15.054465 19.898743
277 3 25 0.122111 5.786952 14.563773 20.172852
278 3 61 -0.647047 1.577706 19.183208 20.219962
279 3 61 -0.647047 3.453440 18.743227 22.266190
280 3 61 -0.647047 4.304800 19.734648 19.781190
281 3 5 -0.099102 4.178476 12.793101 17.128998
282 3 26 0.032456 4.367587 11.712909 16.940441
283 3 26 0.032456 3.181353 13.023519 16.696552
284 3 5 0.015778 5.289866 13.577284 16.370950
285 3 26 0.022425 6.260246 13.328403 16.856082
286 3 6 -0.035969 5.040299 15.075028 16.419600
287 3 6 -0.131756 3.874239 15.629084 15.856278
288 3 25 0.101496 3.129377 14.996894 15.391944
289 3 6 -0.139767 3.666798 17.008650 15.870081
290 3 25 0.14135 2.770716 17.417297 15.421180
291 3 6 -0.051918 4.614958 17.857254 16.446258
292 3 79 1.157597 4.337624 19.628149 16.415906
293 3 6 -0.139767 5.770907 17.317362 17.023465
294 3 25 0.14135 6.513615 17.962477 17.473123
295 3 6 -0.131756 5.982569 15.934815 17.011514
296 3 25 0.101496 6.888046 15.536791 17.451992
297 3 61 -0.691163 2.847359 19.955732 17.201868
298 3 61 -0.691163 5.624812 20.430252 17.221134
299 3 61 -0.691163 4.275240 20.130896 14.776359
300 3 5 -0.000586 5.378406 13.061774 14.898079
301 3 26 -0.010501 5.501836 11.957430 14.952300
302 3 26 -0.010501 4.422367 13.252970 14.365548
303 3 5 -0.032579 6.575555 13.589748 14.050908
304 3 26 0.137701 7.506439 13.330258 14.602263
305 3 6 -0.011695 6.514627 15.111615 13.852263
306 3 6 -0.095646 5.445205 15.722330 13.168819
307 3 25 0.111209 4.608085 15.130145 12.823283
308 3 6 -0.184492 5.486104 17.088164 12.847291
309 3 25 0.122822 4.680464 17.508142 12.258746
310 3 6 -0.022823 6.602935 17.874135 13.189022
311 3 5 0.164417 6.742103 19.296068 12.648888
312 3 6 -0.184492 7.615840 17.294576 13.972260
313 3 25 0.122822 8.478129 17.878703 14.266926
314 3 6 -0.095646 7.572415 15.929416 14.299767
315 3 25 0.111209 8.403898 15.497966 14.842446
316 3 26 -0.040461 6.830713 19.988351 13.513086
317 3 5 -0.072194 7.972642 19.518997 11.689347
318 3 26 0.004392 8.905342 19.328107 12.260781
319 3 26 0.004392 7.983438 20.594008 11.408317
320 3 5 0.060914 6.638803 12.799931 12.671858
321 3 26 -0.029666 6.662984 11.712558 12.902213
322 3 26 -0.029666 5.698670 12.986768 12.110540
323 3 5 -0.080441 7.874522 13.082116 11.736797
324 3 26 0.161633 8.789886 12.809669 12.308171
325 3 6 -0.033909 7.900674 14.528657 11.378396
326 3 6 -0.046469 6.842583 15.098400 10.646872
327 3 25 0.119472 5.993051 14.506307 10.333563
328 3 6 -0.154837 6.872087 16.442827 10.315297
329 3 25 0.088671 6.047998 16.866635 9.754853
330 3 6 -0.050237 7.958194 17.231074 10.710267
331 3 5 0.18978 7.978650 18.680391 10.360316
332 3 6 -0.154837 9.018524 16.660252 11.437887
333 3 25 0.088671 9.867557 17.252587 11.751939
334 3 6 -0.046469 8.988846 15.315818 11.769753
335 3 25 0.119472 9.812320 14.891994 12.331053
336 3 26 -0.043781 7.060921 18.953256 9.792740
337 3 5 -0.103886 9.207142 18.965847 9.424272
338 3 26 0.015134 10.152112 18.777535 9.977138
339 3 26 0.015134 9.182923 20.052236 9.188536
340 3 5 0.02372 7.885268 12.241341 10.407312
341 3 26 -0.032673 7.875911 11.166945 10.690765
342 3 26 -0.032673 6.952457 12.428657 9.834834
343 3 5 -0.070608 9.115771 12.463540 9.443700
344 3 26 0.047784 10.032947 12.187482 10.007497
345 3 6 -0.002343 9.253726 13.882892 8.890750
346 3 6 -0.14064 8.238538 14.457927 8.106269
347 3 25 0.145001 7.374903 13.871992 7.818618
348 3 6 -0.235918 8.277541 15.823277 7.775181
349 3 25 0.13736 7.438812 16.251800 7.241147
350 3 6 -0.03349 9.331134 16.645999 8.223562
351 3 5 0.334804 9.246504 18.171559 8.054271
352 3 6 -0.235918 10.410647 16.037382 8.893480
353 3 25 0.13736 11.246103 16.631795 9.239375
354 3 6 -0.14064 10.372990 14.671728 9.220217
355 3 25 0.145001 11.181539 14.255401 9.807631
356 3 26 -0.102684 8.309812 18.424279 7.509582
357 3 5 -0.093356 10.413158 18.666621 7.191582
358 3 26 -0.000797 10.405307 18.151283 6.207410
359 3 26 -0.000797 10.318421 19.758655 7.010704
360 3 26 -0.000556 2.242734 10.497734 22.322673
361 3 26 -0.040461 5.826105 19.577286 12.085643
362 3 26 0.047784 9.028133 11.765048 8.584251
363 3 26 -0.000797 11.387625 18.477403 7.689020
364 4 5 -0.051233 21.808763 17.623788 9.568320
365 4 26 -0.000556 21.565533 16.656652 9.079209
366 4 26 -0.000556 22.911160 17.758521 9.545043
367 4 5 0.030247 21.273341 17.645375 11.009060
368 4 26 0.028561 20.176201 17.470726 10.941510
369 4 6 0.077933 21.537840 19.017475 11.608283
370 4 6 -0.200132 22.850567 19.494295 11.791408
371 4 25 0.120991 23.702380 18.881470 11.527914
372 4 6 -0.123165 23.075275 20.772357 12.310812
373 4 25 0.137797 24.090528 21.125400 12.439507
374 4 6 -0.043312 21.996719 21.594650 12.651611
375 4 79 1.139467 22.302582 23.246882 13.282390
376 4 6 -0.123165 20.688629 21.128355 12.478514
377 4 25 0.137797 19.844594 21.755036 12.734689
378 4 6 -0.200132 20.460046 19.849726 11.960890
379 4 25 0.120991 19.439430 19.514095 11.827011
380 4 61 -0.686299 22.836056 24.225885 11.977565
381 4 61 -0.686299 20.852778 23.889798 13.941029
382 4 61 -0.686299 23.508596 23.155415 14.500316
383 4 5 -0.167947 21.885757 16.467030 11.813330
384 4 26 0.053829 21.701443 15.552570 11.206318
385 4 26 0.053829 22.987966 16.584304 11.894607
386 4 5 0.061335 21.259899 16.201350 13.211850
387 4 26 0.066322 20.165884 16.063620 13.058188
388 4 6 0.022005 21.495286 17.365108 14.158533
389 4 6 -0.142215 22.795135 17.758248 14.529249
390 4 25 0.122111 23.659130 17.228904 14.149540
391 4 6 -0.138255 22.988369 18.841164 15.393072
392 4 25 0.125927 23.995289 19.128043 15.665156
393 4 6 -0.052124 21.887815 19.546200 15.895568
394 4 79 1.076745 22.113746 20.944343 16.996709
395 4 6 -0.138255 20.594432 19.159805 15.533959
396 4 25 0.125927 19.737942 19.699157 15.917496
397 4 6 -0.142215 20.397554 18.078023 14.673216
398 4 25 0.122111 19.386014 17.800618 14.405266
399 4 61 -0.647047 23.782517 21.338343 17.091232
400 4 61 -0.647047 21.233054 22.275576 16.369540
401 4 61 -0.647047 21.512298 20.524379 18.546300
402 4 5 -0.099102 21.804315 14.847467 13.758549
403 4 26 0.032456 21.573213 14.090479 12.976442
404 4 26 0.032456 22.910754 14.882133 13.853138
405 4 5 0.015778 21.165534 14.329037 15.080652
406 4 26 0.022425 20.061456 14.335158 14.939557
407 4 6 -0.035969 21.555034 15.201602 16.261672
408 4 6 -0.131756 22.904770 15.340571 16.639700
409 4 25 0.101496 23.688763 14.840177 16.087384
410 4 6 -0.139767 23.254705 16.112919 17.747602
411 4 25 0.14135 24.295958 16.197900 18.030512
412 4 6 -0.051918 22.267619 16.760155 18.494504
413 4 79 1.157597 22.745180 17.715356 19.934446
414 4 6 -0.139767 20.923590 16.642488 18.119528
415 4 25 0.14135 20.148681 17.138095 18.688625
416 4 6 -0.131756 20.568723 15.868986 17.009508
417 4 25 0.101496 19.523311 15.780019 16.742054
418 4 61 -0.691163 23.853865 18.927178 19.436205
419 4 61 -0.691163 21.354612 18.433995 20.640485
420 4 61 -0.691163 23.484014 16.651440 21.060042
421 4 5 -0.000586 21.581042 12.839946 15.310653
422 4 26 -0.010501 21.315291 12.286467 14.382867
423 4 26 -0.010501 22.683037 12.761796 15.427514
424 4 5 -0.032579 20.866742 12.094676 16.478544
425 4 26 0.137701 19.772536 12.160091 16.288004
426 4 6 -0.011695 21.179771 12.726768 17.842994
427 4 6 -0.095646 22.493137 12.770540 18.349835
428 4 25 0.111209 23.321531 12.412474 17.752844
429 4 6 -0.184492 22.740668 13.195092 19.664764
430 4 25 0.122822 23.753221 13.147461 20.044622
431 4 6 -0.022823 21.680200 13.573408 20.509823
432 4 5 0.164417 21.927131 13.821683 21.996561
433 4 6 -0.184492 20.384587 13.642269 19.969476
434 4 25 0.122822 19.551417 13.947903 20.589146
435 4 6 -0.095646 20.137188 13.223623 18.651775
436 4 25 0.111209 19.116937 13.220977 18.289701
437 4 26 -0.040461 21.600924 14.856567 22.234359
438 4 5 -0.072194 21.188346 12.819817 22.963569
439 4 26 0.004392 20.093057 12.936178 22.823188
440 4 26 0.004392 21.413404 13.136942 24.004494
441 4 5 0.060914 21.237122 10.548802 16.426719
442 4 26 -0.029666 20.997701 10.174553 15.407580
443 4 26 -0.029666 22.334912 10.440635 16.557069
444 4 5 -0.080441 20.491383 9.595790 17.434989
445 4 26 0.161633 19.402281 9.675116 17.220161
446 4 6 -0.033909 20.776067 10.035488 18.830423
447 4 6 -0.046469 22.092366 10.016029 19.326677
448 4 25 0.119472 22.919945 9.687661 18.712081
449 4 6 -0.154837 22.351606 10.424527 20.624453
450 4 25 0.088671 23.370893 10.406773 20.989930
451 4 6 -0.050237 21.299420 10.855756 21.439259
452 4 5 0.18978 21.586459 11.305308 22.831708
453 4 6 -0.154837 19.982417 10.870872 20.944442
454 4 25 0.088671 19.155043 11.200104 21.558775
455 4 6 -0.046469 19.723226 10.462655 19.646483
456 4 25 0.119472 18.704178 10.481266 19.280439
457 4 26 -0.043781 22.676342 11.229934 23.044544
458 4 5 -0.103886 20.848115 10.355119 23.841088
459 4 26 0.015134 19.748914 10.454329 23.714579
460 4 26 0.015134 21.089493 10.724487 24.861726
461 4 5 0.02372 20.885062 8.078519 17.302859
462 4 26 -0.032673 20.657838 7.763296 16.261819
463 4 26 -0.032673 21.980422 7.959511 17.440622
464 4 5 -0.070608 20.147766 7.072969 18.271013
465 4 26 0.047784 19.059443 7.143777 18.056947
466 4 6 -0.002343 20.400361 7.309796 19.760796
467 4 6 -0.14064 21.697998 7.238227 20.297170
468 4 25 0.145001 22.529528 6.937757 19.672506
469 4 6 -0.235918 21.950836 7.655245 21.615309
470 4 25 0.13736 22.974109 7.665408 21.969006
471 4 6 -0.03349 20.912357 8.156465 22.426674
472 4 5 0.334804 21.236449 8.820806 23.774550
473 4 6 -0.235918 19.595110 8.100000 21.930462
474 4 25 0.13736 18.768372 8.459947 22.528709
475 4 6 -0.14064 19.342650 7.678913 20.614357
476 4 25 0.145001 18.328293 7.726699 20.238947
477 4 26 -0.102684 22.332649 8.758942 23.954724
478 4 5 -0.093356 20.552082 8.054307 24.912321
479 4 26 -0.000797 20.870803 6.990107 24.901039
480 4 26 -0.000797 20.838048 8.490394 25.893280
481 4 26 -0.000556 21.337521 18.435695 8.973490
482 4 26 -0.040461 23.014780 13.753642 22.215121
483 4 26 0.047784 20.470539 6.038523 18.026139
484 4 26 -0.000797 19.446717 8.099849 24.817831
485 5 5 -0.051233 27.723422 26.720281 11.354379
486 5 26 -0.000556 28.440663 26.200120 10.684496
487 5 26 -0.000556 27.973793 27.802528 11.359888
488 5 5 0.030247 27.784409 26.125273 12.770402
489 5 26 0.028561 27.555911 25.040798 12.668006
490 5 6 0.077933 26.721755 26.794100 13.627795
491 5 6 -0.200132 26.767270 28.174759 13.903209
492 5 25 0.120991 27.575878 28.786661 13.525982
493 5 6 -0.123165 25.762882 28.780077 14.663807
494 5 25 0.137797 25.810189 29.843468 14.861043
495 5 6 -0.043312 24.697672 28.020396 15.157573
496 5 79 1.139467 23.397036 28.820170 16.100977
497 5 6 -0.123165 24.645898 26.646942 14.894066
498 5 25 0.137797 23.825857 26.047513 15.266850
499 5 6 -0.200132 25.649805 26.037670 14.135095
500 5 25 0.120991 25.583666 24.975461 13.936187
501 5 61 -0.686299 22.438848 29.740721 15.014665
502 5 61 -0.686299 22.427902 27.629531 16.870546
503 5 61 -0.686299 24.119466 29.837930 17.279298
504 5 5 -0.167947 29.227856 26.248322 13.328720
505 5 26 0.053829 29.895153 25.809358 12.553674
506 5 26 0.053829 29.513459 27.317301 13.433320
507 5 5 0.061335 29.514576 25.474617 14.646792
508 5 26 0.066322 29.237323 24.411446 14.467214
509 5 6 0.022005 28.697662 26.022004 15.803930
510 5 6 -0.142215 28.850301 27.349458 16.246833
511 5 25 0.122111 29.564848 28.008917 15.772063
512 5 6 -0.138255 28.078128 27.835768 17.306780
513 5 25 0.125927 28.209863 28.859170 17.631608
514 5 6 -0.052124 27.143070 27.004805 17.936037
515 5 79 1.076745 26.135437 27.611533 19.290627
516 5 6 -0.138255 26.988116 25.685064 17.503399
517 5 25 0.125927 26.267632 25.035757 17.983900
518 5 6 -0.142215 27.758558 25.195500 16.446688
519 5 25 0.122111 27.617270 24.170664 16.127765
520 5 61 -0.647047 26.363263 29.304805 19.463511
521 5 61 -0.647047 24.491568 27.275768 18.935520
522 5 61 -0.647047 26.600401 26.798400 20.726580
523 5 5 -0.099102 31.048984 25.492506 14.917974
524 5 26 0.032456 31.522996 25.074684 14.002076
525 5 26 0.032456 31.414566 26.536735 15.019415
526 5 5 0.015778 31.549994 24.626873 16.111472
527 5 26 0.022425 31.139112 23.601799 15.972441
528 5 6 -0.035969 31.097279 25.204815 17.441479
529 5 6 -0.131756 31.502484 26.493073 17.841735
530 5 25 0.101496 32.131158 27.099057 17.203266
531 5 6 -0.139767 31.115034 27.005177 19.080305
532 5 25 0.14135 31.446495 27.992124 19.376170
533 5 6 -0.051918 30.317114 26.244453 19.938057
534 5 79 1.157597 29.866137 26.915037 21.538320
535 5 6 -0.139767 29.894811 24.968513 19.544984
536 5 25 0.14135 29.276750 24.368292 20.198984
537 5 6 -0.131756 30.281241 24.451536 18.304104
538 5 25 0.101496 29.954861 23.458275 18.022604
539 5 61 -0.691163 29.039401 28.398470 21.289583
540 5 61 -0.691163 28.856328 25.802240 22.369334
541 5 61 -0.691163 31.306691 27.173142 22.434392
542 5 5 -0.000586 33.106427 24.500055 16.045354
543 5 26 -0.010501 33.354334 24.128241 15.026508
544 5 26 -0.010501 33.578476 25.500604 16.146477
545 5 5 -0.032579 33.762061 23.497801 17.042977
546 5 26 0.137701 33.290874 22.505365 16.867122
547 5 6 -0.011695 33.538256 23.910333 18.505502
548 5 6 -0.095646 34.042317 25.123505 19.013313
549 5 25 0.111209 34.546955 25.822172 18.359056
550 5 6 -0.184492 33.978047 25.408096 20.386423
551 5 25 0.122822 34.439600 26.316768 20.751264
552 5 6 -0.022823 33.420625 24.481175 21.287499
553 5 5 0.164417 33.550074 24.694017 22.794465
554 5 6 -0.184492 32.812774 23.324896 20.768978
555 5 25 0.122822 32.358952 22.602533 21.435170
556 5 6 -0.095646 32.871140 23.042607 19.394310
557 5 25 0.111209 32.456514 22.108559 19.037023
558 5 26 -0.040461 32.528614 24.719549 23.230256
559 5 5 -0.072194 34.396689 23.596275 23.544697
560 5 26 0.004392 33.887430 22.616506 23.428024
561 5 26 0.004392 34.373272 23.842519 24.628007
562 5 5 0.060914 35.303484 23.328942 16.689293
563 5 26 -0.029666 35.378581 23.048481 15.616107
564 5 26 -0.029666 35.804214 24.314510 16.797743
565 5 5 -0.080441 36.110302 22.238262 17.489563
566 5 26 0.161633 35.623593 21.256978 17.292633
567 5 6 -0.033909 36.059644 22.557286 18.944649
568 5 6 -0.046469 36.621000 23.752663 19.429670
569 5 25 0.119472 37.094771 24.461774 18.763980
570 5 6 -0.154837 36.572385 24.044031 20.782829
571 5 25 0.088671 37.006093 24.970074 21.139446
572 5 6 -0.050237 35.963517 23.144784 21.664643
573 5 5 0.18978 35.904045 23.469542 23.118741
574 5 6 -0.154837 35.406183 21.947186 21.180178
575 5 25 0.088671 34.931638 21.238576 21.845780
576 5 6 -0.046469 35.454523 21.655971 19.826894
577 5 25 0.119472 35.020003 20.730479 19.469890
578 5 26 -0.043781 36.387016 24.453027 23.314496
579 5 5 -0.103886 36.711006 22.386681 23.920665
580 5 26 0.015134 36.218748 21.396509 23.814221
581 5 26 0.015134 36.641353 22.667234 24.994368
582 5 5 0.02372 37.618628 22.106454 17.062793
583 5 26 -0.032673 37.639527 21.858824 15.979741
584 5 26 -0.032673 38.129869 23.085579 17.176379
585 5 5 -0.070608 38.469358 21.008791 17.813428
586 5 26 0.047784 37.990901 20.025318 17.615574
587 5 6 -0.002343 38.611856 21.222889 19.321142
588 5 6 -0.14064 39.222166 22.380433 19.835239
589 5 25 0.145001 39.669750 23.103339 19.165161
590 5 6 -0.235918 39.167248 22.667251 21.210026
591 5 25 0.13736 39.574449 23.607246 21.560581
592 5 6 -0.03349 38.497997 21.804670 22.102232
593 5 5 0.334804 38.245247 22.239590 23.554856
594 5 6 -0.235918 38.006247 20.582848 21.602345
595 5 25 0.13736 37.500676 19.886282 22.258205
596 5 6 -0.14064 38.065416 20.294875 20.228753
597 5 25 0.145001 37.603917 19.384254 19.868301
598 5 26 -0.102684 38.711944 23.235809 23.721248
599 5 5 -0.093356 38.925179 21.260381 24.518829
600 5 26 -0.000797 40.012699 21.202319 24.299377
601 5 26 -0.000797 38.802105 21.608001 25.566800
602 5 26 -0.000556 26.704451 26.592029 10.929722
603 5 26 -0.040461 34.026577 25.677478 22.997269
604 5 26 0.047784 39.487933 20.980671 17.370780
605 5 26 -0.000797 38.486114 20.244148 24.433233
606 6 5 -0.051233 18.464882 2.797099 8.303311
607 6 26 -0.000556 17.554217 2.799575 8.939257
608 6 26 -0.000556 18.665293 1.751654 7.985734
609 6 5 0.030247 19.657942 3.385783 9.073334
610 6 26 0.028561 19.360367 4.413375 9.380389