LAMMPS Description

6307  atoms
5440  bonds
7650  angles
8721  dihedrals
204  impropers

90  atom types
843  bond types
4620  angle types
992  dihedral types
41  improper types

-0.05 43.05 xlo xhi
-0.05 43.05 ylo yhi
-0.05 43.05 zlo zhi

Masses

1 12.01  # c
2 12.01  # cs
3 12.01  # c1
4 12.01  # c2
5 12.01  # c3
6 12.01  # ca
7 12.01  # cp
8 12.01  # cq
9 12.01  # cc
10 12.01  # cd
11 12.01  # ce
12 12.01  # cf
13 12.01  # cg
14 12.01  # ch
15 12.01  # cx
16 12.01  # cy
17 12.01  # cu
18 12.01  # cv
19 12.01  # cz
20 1.008  # h1
21 1.008  # h2
22 1.008  # h3
23 1.008  # h4
24 1.008  # h5
25 1.008  # ha
26 1.008  # hc
27 1.008  # hn
28 1.008  # ho
29 1.008  # hp
30 1.008  # hs
31 1.008  # hw
32 1.008  # hx
33 19.00  # f
34 35.45  # cl
35 79.90  # br
36 126.9  # i
37 14.01  # n
38 14.01  # n1
39 14.01  # n2
40 14.01  # n3
41 14.01  # n4
42 14.01  # na
43 14.01  # nb
44 14.01  # nc
45 14.01  # nd
46 14.01  # ne
47 14.01  # nf
48 14.01  # nh
49 14.01  # no
51 14.01  # nt
52 14.01  # nx
53 14.01  # ny
54 14.01  # nz
55 14.01  # n+
56 14.01  # nu
57 14.01  # nv
58 14.01  # n7
59 14.01  # n8
60 14.01  # n9
61 16.00  # o
62 16.00  # oh
63 16.00  # os
64 16.00  # ow
65 30.97  # p2
66 30.97  # p3
67 30.97  # p4
68 30.97  # p5
69 30.97  # pb
70 30.97  # pc
71 30.97  # pd
72 30.97  # pe
73 30.97  # pf
74 30.97  # px
75 30.97  # py
76 32.06  # s
77 32.06  # s2
78 32.06  # s4
79 32.06  # s6
80 32.06  # sh
81 32.06  # ss
82 32.06  # sx
83 32.06  # sy
84 6.94  # li+
85 39.10  # k+
86 22.99  # na+
87 35.45  # cl-
88 19.00  # fl-
89 79.90  # br-
90 126.9  # i-
50 14.010  # ns

Atoms

1 1 5 -0.064834 24.964 23.579 24.778
2 1 1 0.222095 23.710 23.580 25.620
3 1 61 -0.421224 23.179 24.606 25.924
4 1 50 -0.199073 23.211 22.355 26.131
5 1 27 0.175403 23.777 21.530 25.880
6 1 5 0.184261 21.819 21.929 26.520
7 1 5 -0.100266 21.798 22.025 28.084
8 1 5 -0.100266 21.627 20.488 25.988
9 1 5 0.048604 20.592 22.742 26.017
10 1 79 1.067957 20.271 22.850 24.280
11 1 61 -0.67072 19.186 23.834 24.320
12 1 61 -0.67072 19.909 21.532 23.874
13 1 61 -0.67072 21.544 23.285 23.756
14 1 26 0.016092 22.339 21.238 28.552
15 1 26 0.016092 20.791 21.851 28.378
16 1 26 0.016092 21.975 22.975 28.639
17 1 26 0.016092 21.748 20.431 24.912
18 1 26 0.016092 20.645 20.126 26.163
19 1 26 0.016092 22.301 19.733 26.454
20 1 20 0.009122 20.633 23.769 26.389
21 1 20 0.009122 19.625 22.433 26.497
22 1 26 0.110917 25.029 22.626 24.300
23 1 5 -0.011873 26.198 24.021 25.562
24 1 1 0.615339 26.081 25.502 26.022
25 1 61 -0.561397 26.188 25.843 27.211
26 1 63 -0.237444 26.106 26.338 24.979
27 1 5 -0.084855 25.970 27.726 25.151
28 1 5 0.13222 24.506 28.032 25.606
29 1 63 -0.455502 24.069 29.426 25.373
30 1 5 0.114684 23.673 29.881 24.032
31 1 5 0.021605 22.209 29.569 23.751
32 1 63 -0.293251 22.376 28.339 23.033
33 1 5 -0.032933 21.149 27.642 22.621
34 1 5 0.124764 21.631 26.258 22.159
35 1 63 -0.408629 22.446 26.193 20.886
36 1 5 0.12378 21.893 26.366 19.584
37 1 5 0.151903 21.167 25.122 19.164
38 1 63 -0.326818 21.952 23.917 19.387
39 1 20 0.114474 26.758 28.254 25.709
40 1 20 0.114474 26.143 28.218 24.163
41 1 20 0.076629 23.833 27.286 25.155
42 1 20 0.076629 24.453 27.853 26.720
43 1 20 0.048212 23.945 30.898 23.880
44 1 20 0.048212 24.315 29.393 23.265
45 1 20 0.054681 21.600 29.431 24.660
46 1 20 0.054681 21.697 30.327 23.124
47 1 20 0.058887 20.451 27.563 23.483
48 1 20 0.058887 20.655 28.129 21.771
49 1 20 0.087894 22.235 25.821 22.880
50 1 20 0.087894 20.658 25.675 22.003
51 1 20 0.02648 21.139 27.249 19.558
52 1 20 0.02648 22.677 26.634 18.852
53 1 20 0.036537 20.897 25.186 18.076
54 1 20 0.036537 20.248 24.997 19.811
55 1 1 0.727713 22.988 23.812 18.553
56 1 61 -0.576378 23.181 24.545 17.626
57 1 5 -0.020814 23.951 22.711 18.979
58 1 26 0.067554 26.025 23.488 26.495
59 1 26 -0.02174 23.903 22.732 20.099
60 1 5 -0.024924 27.585 23.535 24.927
61 1 1 0.470545 28.049 24.535 23.809
62 1 61 -0.510544 29.054 25.278 23.808
63 1 63 -0.240725 27.241 24.372 22.717
64 1 5 -0.013005 27.309 25.324 21.646
65 1 5 0.119773 26.327 25.060 20.477
66 1 63 -0.420621 26.593 26.040 19.384
67 1 5 0.099176 27.747 25.870 18.563
68 1 5 0.161534 27.318 24.844 17.459
69 1 63 -0.458288 28.473 24.627 16.659
70 1 5 0.05472 28.351 23.597 15.745
71 1 5 0.076753 27.437 23.997 14.527
72 1 63 -0.389014 26.093 23.547 14.714
73 1 5 0.064058 25.797 22.180 14.191
74 1 5 -0.090567 24.452 21.756 14.869
75 1 63 -0.173198 24.469 21.580 16.277
76 1 20 0.101034 27.114 26.358 22.087
77 1 20 0.101034 28.309 25.268 21.185
78 1 20 0.049284 26.611 24.085 20.088
79 1 20 0.049284 25.251 25.122 20.750
80 1 20 0.046057 28.094 26.854 18.166
81 1 20 0.046057 28.519 25.425 19.179
82 1 20 0.088904 26.916 23.926 17.881
83 1 20 0.088904 26.549 25.255 16.816
84 1 20 0.069914 29.347 23.357 15.439
85 1 20 0.069914 27.882 22.662 16.214
86 1 20 0.06545 27.458 25.128 14.357
87 1 20 0.06545 27.794 23.505 13.600
88 1 20 0.050458 25.743 22.203 13.121
89 1 20 0.050458 26.626 21.484 14.510
90 1 20 0.129934 24.058 20.910 14.337
91 1 20 0.129934 23.755 22.582 14.709
92 1 1 0.480209 23.354 21.258 16.930
93 1 61 -0.503245 22.310 21.174 16.358
94 1 5 0.005732 23.504 21.268 18.460
95 1 26 0.086901 28.340 23.767 25.659
96 1 26 0.055053 22.498 21.086 18.950
97 1 5 -0.061618 27.582 21.976 24.472
98 1 1 0.006984 26.996 21.087 25.569
99 1 61 -0.316241 26.068 20.320 25.346
100 1 63 -0.165503 27.703 21.235 26.706
101 1 5 0.105106 27.112 20.720 27.986
102 1 5 0.117578 27.445 19.205 28.199
103 1 63 -0.320653 26.491 18.300 27.535
104 1 5 0.063637 25.159 18.210 28.058
105 1 5 0.029282 24.180 17.345 27.315
106 1 63 -0.194674 24.398 17.536 25.891
107 1 5 -0.009242 23.573 16.762 25.061
108 1 5 0.038187 23.937 16.927 23.523
109 1 63 -0.384229 23.315 18.005 22.985
110 1 5 -0.014226 24.007 19.217 23.222
111 1 5 0.009599 23.203 20.368 22.537
112 1 63 -0.33938 23.284 20.124 21.048
113 1 20 0.057043 27.564 21.285 28.771
114 1 20 0.057043 26.114 20.886 28.185
115 1 20 0.032527 28.428 18.878 27.742
116 1 20 0.032527 27.483 18.941 29.278
117 1 20 0.057362 25.218 17.893 29.096
118 1 20 0.057362 24.688 19.235 27.970
119 1 20 0.038983 24.447 16.325 27.576
120 1 20 0.038983 23.139 17.592 27.665
121 1 20 0.056343 23.683 15.754 25.368
122 1 20 0.056343 22.558 17.061 25.167
123 1 20 0.088918 25.020 17.118 23.400
124 1 20 0.088918 23.484 16.004 23.038
125 1 20 0.156904 24.038 19.564 24.286
126 1 20 0.156904 25.104 19.284 22.953
127 1 20 0.155332 23.575 21.387 22.761
128 1 20 0.155332 22.181 20.379 22.818
129 1 1 0.379316 24.545 20.194 20.421
130 1 61 -0.341833 25.509 20.601 20.908
131 1 5 0.022239 24.321 19.978 18.963
132 1 26 -0.044273 26.824 21.840 23.667
133 1 26 -0.043411 25.279 19.870 18.416
134 1 5 0.013273 28.970 21.472 23.982
135 1 1 0.315224 29.652 22.302 22.915
136 1 61 -0.440046 30.742 22.901 22.977
137 1 63 -0.079419 28.986 22.092 21.745
138 1 5 -0.022401 29.452 22.566 20.509
139 1 5 -0.009931 30.443 21.541 19.928
140 1 63 -0.36748 29.776 20.279 19.785
141 1 5 0.049975 28.641 20.168 18.869
142 1 5 0.087401 29.127 20.252 17.354
143 1 63 -0.398109 30.257 19.369 17.044
144 1 5 0.12569 29.811 18.009 16.867
145 1 5 0.05114 29.300 17.683 15.395
146 1 63 -0.336734 27.884 17.901 15.307
147 1 5 0.053992 27.111 16.811 15.807
148 1 5 0.016258 25.637 17.235 15.699
149 1 63 -0.222559 25.211 17.858 16.981
150 1 20 0.091829 28.639 22.710 19.842
151 1 20 0.091829 29.876 23.554 20.677
152 1 20 0.095311 30.745 21.845 18.890
153 1 20 0.095311 31.329 21.535 20.518
154 1 20 0.046702 28.265 19.157 19.062
155 1 20 0.046702 27.853 20.927 18.935
156 1 20 0.053859 28.278 19.941 16.712
157 1 20 0.053859 29.438 21.286 17.066
158 1 20 0.046591 30.679 17.383 17.085
159 1 20 0.046591 29.047 17.714 17.615
160 1 20 0.051636 29.739 18.296 14.638
161 1 20 0.051636 29.591 16.663 15.057
162 1 20 0.053041 27.358 15.919 15.299
163 1 20 0.053041 27.282 16.659 16.892
164 1 20 0.084748 25.069 16.290 15.536
165 1 20 0.084748 25.526 17.790 14.797
166 1 1 0.268048 23.874 18.143 17.170
167 1 61 -0.418054 22.868 17.944 16.459
168 1 5 0.015692 23.576 18.668 18.611
169 1 26 0.086891 29.575 21.466 24.897
170 1 26 0.079668 22.515 18.726 18.719
171 1 5 0.189124 28.794 19.975 23.471
172 1 1 0.691036 30.036 19.203 22.982
173 1 61 -0.55956 31.170 19.634 22.908
174 1 63 -0.351838 29.671 17.866 22.884
175 1 5 0.061411 30.416 17.051 21.987
176 1 5 0.002798 29.948 15.581 22.040
177 1 63 -0.344871 28.515 15.432 21.955
178 1 5 -0.052278 27.911 15.763 20.690
179 1 5 0.040495 28.249 14.702 19.654
180 1 63 -0.386643 28.295 13.296 20.197
181 1 5 0.067818 26.970 12.715 20.537
182 1 5 0.040988 26.357 12.094 19.214
183 1 63 -0.342146 25.490 13.056 18.483
184 1 5 -0.061806 24.273 13.335 19.158
185 1 5 -0.025605 23.355 14.033 18.187
186 1 63 -0.300453 23.649 15.414 18.384
187 1 20 0.073511 30.361 17.471 20.939
188 1 20 0.073511 31.504 17.068 22.242
189 1 20 0.086569 30.398 15.033 21.256
190 1 20 0.086569 30.388 15.211 22.975
191 1 20 0.099542 26.866 15.965 20.729
192 1 20 0.099542 28.377 16.700 20.368
193 1 20 0.080529 27.566 14.822 18.828
194 1 20 0.080529 29.255 14.925 19.238
195 1 20 0.068977 27.067 11.888 21.287
196 1 20 0.068977 26.293 13.420 21.043
197 1 20 0.063577 27.074 11.668 18.551
198 1 20 0.063577 25.722 11.236 19.535
199 1 20 0.10265 23.819 12.386 19.388
200 1 20 0.10265 24.320 13.797 20.083
201 1 20 0.108525 22.302 13.904 18.423
202 1 20 0.108525 23.511 13.654 17.121
203 1 1 0.758167 23.131 16.222 19.352
204 1 61 -0.584437 22.336 15.775 20.156
205 1 5 -0.006456 23.979 17.502 19.518
206 1 26 -0.085676 28.371 19.409 24.202
207 1 26 0.002565 23.916 17.809 20.565
208 1 26 0.110917 24.801 24.237 23.945
209 1 26 -0.085676 28.071 19.997 22.644
210 1 26 -0.02174 24.968 22.974 18.707
211 1 26 0.002565 25.004 17.292 19.346
212 2 5 -0.064834 35.172 13.449 23.497
213 2 1 0.222095 36.222 14.432 23.956
214 2 61 -0.421224 36.091 15.033 24.979
215 2 50 -0.199073 37.332 14.711 23.118
216 2 27 0.175403 37.323 14.202 22.221
217 2 5 0.184261 38.729 15.177 23.435
218 2 5 -0.100266 38.720 16.709 23.105
219 2 5 -0.100266 39.689 14.360 22.536
220 2 5 0.048604 39.279 15.047 24.883
221 2 79 1.067957 39.455 13.443 25.609
222 2 61 -0.67072 39.801 13.855 26.971
223 2 61 -0.67072 40.488 12.797 24.865
224 2 61 -0.67072 38.148 12.863 25.399
225 2 26 0.016092 38.721 16.906 22.059
226 2 26 0.016092 39.655 17.090 23.437
227 2 26 0.016092 38.048 17.439 23.614
228 2 26 0.016092 39.603 13.293 22.711
229 2 26 0.016092 40.707 14.579 22.736
230 2 26 0.016092 39.563 14.543 21.443
231 2 20 0.009122 38.675 15.636 25.577
232 2 20 0.009122 40.261 15.571 25.036
233 2 26 0.110917 35.645 12.760 22.831
234 2 5 -0.011873 33.916 14.138 22.966
235 2 1 0.615339 33.189 14.937 24.084
236 2 61 -0.561397 32.928 16.147 23.979
237 2 63 -0.237444 32.681 14.121 25.013
238 2 5 -0.084855 32.017 14.624 26.145
239 2 5 0.13222 33.064 15.334 27.064
240 2 63 -0.455502 32.639 15.489 28.472
241 2 5 0.114684 32.688 14.356 29.408
242 2 5 0.021605 34.069 14.213 30.033
243 2 63 -0.293251 34.610 13.215 29.157
244 2 5 -0.032933 36.009 12.825 29.380
245 2 5 0.124764 36.380 11.996 28.141
246 2 63 -0.408629 35.721 10.644 27.985
247 2 5 0.12378 36.059 9.504 28.772
248 2 5 0.151903 37.352 8.913 28.291
249 2 63 -0.326818 37.382 8.743 26.846
250 2 20 0.114474 31.078 15.177 25.986
251 2 20 0.114474 31.581 13.762 26.704
252 2 20 0.076629 34.033 14.819 26.958
253 2 20 0.076629 33.227 16.373 26.653
254 2 20 0.048212 31.889 14.405 30.109
255 2 20 0.048212 32.417 13.417 28.874
256 2 20 0.054681 34.666 15.141 30.013
257 2 20 0.054681 34.056 13.852 31.082
258 2 20 0.058887 36.646 13.734 29.469
259 2 20 0.058887 36.130 12.186 30.264
260 2 20 0.087894 36.138 12.508 27.273
261 2 20 0.087894 37.510 11.844 28.250
262 2 20 0.02648 36.187 9.785 29.892
263 2 20 0.02648 35.247 8.753 28.753
264 2 20 0.036537 37.520 7.916 28.779
265 2 20 0.036537 38.193 9.634 28.519
266 2 1 0.727713 36.571 7.774 26.419
267 2 61 -0.576378 35.985 7.023 27.145
268 2 5 -0.020814 36.401 7.799 24.906
269 2 26 0.067554 34.374 14.937 22.388
270 2 26 -0.02174 36.446 8.890 24.650
271 2 5 -0.024924 33.031 13.224 21.993
272 2 1 0.470545 32.066 12.313 22.832
273 2 61 -0.510544 30.818 12.346 22.876
274 2 63 -0.240725 32.809 11.333 23.435
275 2 5 -0.013005 32.199 10.513 24.442
276 2 5 0.119773 33.140 9.460 25.078
277 2 63 -0.420621 32.351 8.595 26.004
278 2 5 0.099176 31.478 7.606 25.458
279 2 5 0.161534 32.391 6.366 25.171
280 2 63 -0.458288 31.543 5.387 24.583
281 2 5 0.05472 32.208 4.287 24.075
282 2 5 0.076753 32.719 3.330 25.217
283 2 63 -0.389014 34.087 3.590 25.541
284 2 5 0.064058 35.090 2.811 24.755
285 2 5 -0.090567 36.453 3.551 24.971
286 2 63 -0.173198 36.561 4.866 24.445
287 2 20 0.101034 31.787 11.201 25.251
288 2 20 0.101034 31.396 9.919 23.974
289 2 20 0.049284 33.447 8.821 24.252
290 2 20 0.049284 34.000 9.884 25.642
291 2 20 0.046057 30.631 7.403 26.158
292 2 20 0.046057 31.099 7.993 24.520
293 2 20 0.088904 33.246 6.616 24.549
294 2 20 0.088904 32.785 5.946 26.090
295 2 20 0.069914 31.513 3.801 23.422
296 2 20 0.069914 33.129 4.587 23.462
297 2 20 0.06545 32.063 3.423 26.149
298 2 20 0.06545 32.684 2.274 24.879
299 2 20 0.050458 35.104 1.793 25.089
300 2 20 0.050458 34.801 2.846 23.665
301 2 20 0.129934 37.245 2.897 24.655
302 2 20 0.129934 36.562 3.684 26.049
303 2 1 0.480209 37.674 5.573 24.623
304 2 61 -0.503245 38.576 5.144 25.279
305 2 5 0.005732 37.571 7.029 24.141
306 2 26 0.086901 32.289 13.880 21.571
307 2 26 0.055053 38.514 7.597 24.414
308 2 5 -0.061618 33.901 12.428 20.877
309 2 1 0.006984 34.903 13.361 20.196
310 2 61 -0.316241 36.099 13.097 20.152
311 2 63 -0.165503 34.254 14.394 19.625
312 2 5 0.105106 35.055 15.590 19.197
313 2 5 0.117578 35.634 15.401 17.755
314 2 63 -0.320653 36.921 14.683 17.733
315 2 5 0.063637 38.080 15.349 18.248
316 2 5 0.029282 39.364 14.567 18.292
317 2 63 -0.194674 39.053 13.209 18.706
318 2 5 -0.009242 40.156 12.344 18.761
319 2 5 0.038187 39.737 10.850 19.104
320 2 63 -0.384229 39.636 10.664 20.443
321 2 5 -0.014226 38.388 11.078 20.967
322 2 5 0.009599 38.395 10.793 22.502
323 2 63 -0.33938 38.439 9.289 22.662
324 2 20 0.057043 34.376 16.414 19.191
325 2 20 0.057043 35.791 15.955 19.820
326 2 20 0.032527 34.997 14.750 17.082
327 2 20 0.032527 35.769 16.375 17.236
328 2 20 0.057362 38.228 16.267 17.687
329 2 20 0.057362 37.894 15.564 19.343
330 2 20 0.038983 39.720 14.548 17.267
331 2 20 0.038983 40.093 15.103 18.962
332 2 20 0.056343 40.635 12.393 17.818
333 2 20 0.056343 40.830 12.653 19.524
334 2 20 0.088918 38.731 10.628 18.699
335 2 20 0.088918 40.620 10.233 18.747
336 2 20 0.156904 38.184 12.179 20.942
337 2 20 0.156904 37.437 10.683 20.494
338 2 20 0.155332 37.518 11.191 23.050
339 2 20 0.155332 39.239 11.205 22.993
340 2 1 0.379316 37.345 8.530 22.197
341 2 61 -0.341833 36.329 8.962 21.865
342 2 5 0.022239 37.627 7.106 22.536
343 2 26 -0.044273 34.591 11.724 21.397
344 2 26 -0.043411 36.887 6.422 22.074
345 2 5 0.013273 33.028 11.650 19.851
346 2 1 0.315224 31.978 10.720 20.423
347 2 61 -0.440046 30.743 10.769 20.289
348 2 63 -0.079419 32.629 9.636 20.931
349 2 5 -0.022401 31.956 8.490 21.384
350 2 5 -0.009931 31.702 7.558 20.183
351 2 63 -0.36748 32.960 7.222 19.583
352 2 5 0.049975 33.946 6.470 20.358
353 2 5 0.087401 33.472 4.963 20.564
354 2 63 -0.398109 33.027 4.307 19.329
355 2 5 0.12569 34.158 3.884 18.539
356 2 5 0.05114 34.739 2.460 18.952
357 2 63 -0.336734 35.785 2.619 19.920
358 2 5 0.053992 37.047 2.956 19.342
359 2 5 0.016258 38.025 3.150 20.509
360 2 63 -0.222559 38.050 4.587 20.894
361 2 20 0.091829 32.536 7.991 22.119
362 2 20 0.091829 31.054 8.820 21.894
363 2 20 0.095311 31.264 6.587 20.539
364 2 20 0.095311 30.982 8.005 19.540
365 2 20 0.046702 34.829 6.474 19.709
366 2 20 0.046702 34.173 6.816 21.373
367 2 20 0.053859 34.338 4.389 20.951
368 2 20 0.053859 32.630 4.881 21.293
369 2 20 0.046591 33.794 3.831 17.510
370 2 20 0.046591 34.967 4.642 18.521
371 2 20 0.051636 34.018 1.812 19.400
372 2 20 0.051636 35.065 1.861 18.072
373 2 20 0.053041 37.334 2.226 18.632
374 2 20 0.053041 37.009 3.943 18.838
375 2 20 0.084748 39.023 2.853 20.111
376 2 20 0.084748 37.790 2.424 21.253
377 2 1 0.268048 38.998 5.017 21.801
378 2 61 -0.418054 39.931 4.424 22.381
379 2 5 0.015692 38.974 6.567 21.996
380 2 26 0.086891 32.547 12.448 19.271
381 2 26 0.079668 39.821 6.829 22.591
382 2 5 0.189124 34.006 10.839 18.894
383 2 1 0.691036 33.404 10.019 17.733
384 2 61 -0.55956 32.222 9.893 17.477
385 2 63 -0.351838 34.455 9.667 16.895
386 2 5 0.061411 34.281 8.514 16.081
387 2 5 0.002798 35.495 8.291 15.153
388 2 63 -0.344871 36.763 8.371 15.839
389 2 5 -0.052278 37.056 7.310 16.769
390 2 5 0.040495 37.355 6.023 16.017
391 2 63 -0.386643 38.114 6.216 14.730
392 2 5 0.067818 39.542 6.590 14.900
393 2 5 0.040988 40.377 5.256 15.094
394 2 63 -0.342146 40.541 4.892 16.526
395 2 5 -0.061806 41.402 5.773 17.231
396 2 5 -0.025605 41.753 5.122 18.545
397 2 63 -0.300453 40.737 5.590 19.431
398 2 20 0.073511 34.073 7.610 16.724
399 2 20 0.073511 33.376 8.616 15.433
400 2 20 0.086569 35.418 7.348 14.681
401 2 20 0.086569 35.354 9.047 14.371
402 2 20 0.099542 37.807 7.537 17.488
403 2 20 0.099542 36.138 7.151 17.345
404 2 20 0.080529 37.838 5.347 16.705
405 2 20 0.080529 36.390 5.535 15.758
406 2 20 0.068977 39.939 7.110 13.990
407 2 20 0.068977 39.715 7.333 15.694
408 2 20 0.063577 40.010 4.422 14.540
409 2 20 0.063577 41.389 5.456 14.672
410 2 20 0.10265 42.315 5.838 16.662
411 2 20 0.10265 41.120 6.763 17.326
412 2 20 0.108525 42.701 5.464 18.954
413 2 20 0.108525 41.819 3.987 18.443
414 2 1 0.758167 40.728 6.778 20.097
415 2 61 -0.584437 41.650 7.560 19.959
416 2 5 -0.006456 39.311 7.118 20.607
417 2 26 -0.085676 34.686 11.469 18.479
418 2 26 0.002565 39.208 8.205 20.606
419 2 26 0.110917 34.923 12.820 24.330
420 2 26 -0.085676 34.577 10.145 19.526
421 2 26 -0.02174 35.406 7.459 24.634
422 2 26 0.002565 38.578 6.763 19.928
423 3 5 -0.064834 36.803 34.219 17.101
424 3 1 0.222095 37.547 35.533 17.062
425 3 61 -0.421224 38.025 35.937 16.045
426 3 50 -0.199073 37.757 36.252 18.266
427 3 27 0.175403 37.375 35.791 19.108
428 3 5 0.184261 37.959 37.722 18.530
429 3 5 -0.100266 39.505 37.877 18.743
430 3 5 -0.100266 37.127 38.072 19.787
431 3 5 0.048604 37.562 38.764 17.446
432 3 79 1.067957 35.870 38.900 16.946
433 3 61 -0.67072 36.047 39.829 15.826
434 3 61 -0.67072 35.174 39.411 18.083
435 3 61 -0.67072 35.530 37.533 16.629
436 3 26 0.016092 39.830 37.503 19.683
437 3 26 0.016092 39.691 38.922 18.805
438 3 26 0.016092 40.257 37.616 17.963
439 3 26 0.016092 36.072 37.859 19.650
440 3 26 0.016092 37.159 39.107 20.013
441 3 26 0.016092 37.464 37.561 20.719
442 3 20 0.009122 38.144 38.609 16.534
443 3 20 0.009122 37.906 39.807 17.683
444 3 26 0.110917 36.140 34.249 17.939
445 3 5 -0.011873 37.739 33.014 17.029
446 3 1 0.615339 38.491 32.957 15.668
447 3 61 -0.561397 39.728 32.913 15.592
448 3 63 -0.237444 37.649 32.712 14.658
449 3 5 -0.084855 38.099 32.659 13.329
450 3 5 0.13222 38.517 34.099 12.885
451 3 63 -0.455502 38.554 34.305 11.420
452 3 5 0.114684 37.316 34.500 10.653
453 3 5 0.021605 36.885 35.961 10.660
454 3 63 -0.293251 35.936 35.909 11.734
455 3 5 -0.032933 35.311 37.179 12.128
456 3 5 0.124764 34.600 36.864 13.454
457 3 63 -0.408629 33.396 35.949 13.397
458 3 5 0.12378 32.127 36.346 12.883
459 3 5 0.151903 31.410 37.203 13.886
460 3 63 -0.326818 31.424 36.626 15.221
461 3 20 0.114474 38.805 31.859 13.056
462 3 20 0.114474 37.249 32.323 12.687
463 3 20 0.076629 37.877 34.828 13.409
464 3 20 0.076629 39.563 34.283 13.269
465 3 20 0.048212 37.398 34.070 9.682
466 3 20 0.048212 36.507 33.867 11.076
467 3 20 0.054681 37.705 36.667 10.874
468 3 20 0.054681 36.399 36.296 9.720
469 3 20 0.058887 36.092 37.960 12.262
470 3 20 0.058887 34.554 37.514 11.410
471 3 20 0.087894 35.249 36.401 14.116
472 3 20 0.087894 34.265 37.892 13.829
473 3 20 0.02648 32.239 36.957 11.902
474 3 20 0.02648 31.518 35.465 12.607
475 3 20 0.036537 30.346 37.356 13.565
476 3 20 0.036537 31.959 38.186 13.985
477 3 1 0.727713 30.654 35.542 15.328
478 3 61 -0.576378 29.915 35.158 14.467
479 3 5 -0.020814 30.899 34.795 16.632
480 3 26 0.067554 38.526 33.351 17.700
481 3 26 -0.02174 31.993 34.945 16.825
482 3 5 -0.024924 37.102 31.659 17.598
483 3 1 0.470545 36.251 30.950 16.486
484 3 61 -0.510544 36.469 29.852 15.931
485 3 63 -0.240725 35.100 31.666 16.298
486 3 5 -0.013005 34.260 31.359 15.176
487 3 5 0.119773 33.004 32.253 15.042
488 3 63 -0.420621 32.158 31.746 13.921
489 3 5 0.099176 31.393 30.556 14.111
490 3 5 0.161534 30.074 31.025 14.816
491 3 63 -0.458288 29.320 29.842 15.054
492 3 5 0.05472 28.206 30.027 15.850
493 3 5 0.076753 27.043 30.753 15.074
494 3 63 -0.389014 27.047 32.160 15.330
495 3 5 0.064058 26.231 32.600 16.499
496 3 5 -0.090567 26.719 34.052 16.825
497 3 63 -0.173198 28.058 34.194 17.276
498 3 20 0.101034 34.894 31.442 14.232
499 3 20 0.101034 33.861 30.339 15.302
500 3 20 0.049284 32.437 32.080 15.954
501 3 20 0.049284 33.214 33.331 14.860
502 3 20 0.046057 31.235 30.034 13.137
503 3 20 0.046057 31.950 29.919 14.788
504 3 20 0.088904 30.269 31.594 15.721
505 3 20 0.088904 29.485 31.661 14.166
506 3 20 0.069914 27.919 29.051 16.184
507 3 20 0.069914 28.437 30.669 16.771
508 3 20 0.06545 27.115 30.551 13.952
509 3 20 0.06545 26.058 30.385 15.425
510 3 20 0.050458 25.189 32.550 16.258
511 3 20 0.050458 26.449 31.916 17.369
512 3 20 0.129934 25.998 34.513 17.474
513 3 20 0.129934 26.694 34.603 15.882
514 3 1 0.480209 28.558 35.400 17.535
515 3 61 -0.503245 27.916 36.388 17.334
516 3 5 0.005732 30.062 35.396 17.852
517 3 26 0.086901 37.913 30.951 17.640
518 3 26 0.055053 30.439 36.460 17.961
519 3 5 -0.061618 36.332 31.846 19.015
520 3 1 0.006984 37.180 32.656 19.997
521 3 61 -0.316241 36.743 33.662 20.544
522 3 63 -0.165503 38.365 32.045 20.193
523 3 5 0.105106 39.468 32.825 20.847
524 3 5 0.117578 39.379 32.738 22.409
525 3 63 -0.320653 38.482 33.747 22.996
526 3 5 0.063637 38.890 35.121 22.971
527 3 5 0.029282 37.922 36.141 23.501
528 3 63 -0.194674 36.585 35.763 23.071
529 3 5 -0.009242 35.562 36.610 23.523
530 3 5 0.038187 34.119 36.083 23.119
531 3 63 -0.384229 33.782 36.487 21.870
532 3 5 -0.014226 34.311 35.652 20.856
533 3 5 0.009599 33.833 36.210 19.478
534 3 63 -0.33938 32.333 36.024 19.431
535 3 20 0.057043 40.381 32.371 20.529
536 3 20 0.057043 39.635 33.803 20.564
537 3 20 0.032527 38.926 31.775 22.793
538 3 20 0.032527 40.380 32.841 22.883
539 3 20 0.057362 39.840 35.207 23.491
540 3 20 0.057362 38.990 35.428 21.886
541 3 20 0.038983 37.980 36.052 24.583
542 3 20 0.038983 38.250 37.163 23.164
543 3 20 0.056343 35.657 36.677 24.575
544 3 20 0.056343 35.664 37.577 23.089
545 3 20 0.088918 34.108 34.977 23.085
546 3 20 0.088918 33.424 36.616 23.842
547 3 20 0.156904 35.424 35.670 20.736
548 3 20 0.156904 34.130 34.535 20.916
549 3 20 0.155332 34.289 35.716 18.597
550 3 20 0.155332 34.045 37.241 19.357
551 3 1 0.379316 31.816 34.713 19.446
552 3 61 -0.341833 32.437 33.752 19.305
553 3 5 0.022239 30.335 34.828 19.331
554 3 26 -0.044273 35.471 32.536 18.865
555 3 26 -0.043411 29.837 33.848 19.483
556 3 5 0.013273 35.836 30.506 19.631
557 3 1 0.315224 35.012 29.611 18.728
558 3 61 -0.440046 35.266 28.459 18.338
559 3 63 -0.079419 33.784 30.189 18.592
560 3 5 -0.022401 32.707 29.543 17.966
561 3 5 -0.009931 31.986 28.661 19.003
562 3 63 -0.36748 31.541 29.489 20.088
563 3 5 0.049975 30.554 30.537 19.829
564 3 5 0.087401 29.123 29.902 19.528
565 3 63 -0.398109 28.706 28.889 20.504
566 3 5 0.12569 28.219 29.510 21.711
567 3 5 0.05114 26.683 29.921 21.653
568 3 63 -0.336734 26.555 31.276 21.195
569 3 5 0.053992 26.765 32.244 22.221
570 3 5 0.016258 26.656 33.623 21.552
571 3 63 -0.222559 28.012 34.073 21.135
572 3 20 0.091829 32.035 30.260 17.564
573 3 20 0.091829 33.104 28.997 17.112
574 3 20 0.095311 31.057 28.222 18.553
575 3 20 0.095311 32.616 27.846 19.268
576 3 20 0.046702 30.505 31.073 20.783
577 3 20 0.046702 30.727 31.209 18.981
578 3 20 0.053859 28.378 30.723 19.564
579 3 20 0.053859 29.078 29.419 18.522
580 3 20 0.046591 28.355 28.767 22.500
581 3 20 0.046591 28.840 30.376 22.021
582 3 20 0.051636 26.101 29.328 20.983
583 3 20 0.051636 26.158 29.752 22.619
584 3 20 0.053041 26.097 32.082 23.025
585 3 20 0.053041 27.803 32.200 22.611
586 3 20 0.084748 26.263 34.305 22.342
587 3 20 0.084748 25.885 33.566 20.819
588 3 1 0.268048 28.171 35.365 20.678
589 3 61 -0.418054 27.373 36.319 20.567
590 3 5 0.015692 29.669 35.719 20.406
591 3 26 0.086891 36.764 29.998 19.916
592 3 26 0.079668 29.720 36.766 20.200
593 3 5 0.189124 35.013 30.850 20.948
594 3 1 0.691036 34.450 29.693 21.800
595 3 61 -0.55956 34.540 28.506 21.552
596 3 63 -0.351838 34.052 30.238 23.014
597 3 5 0.061411 33.052 29.538 23.747
598 3 5 0.002798 32.767 30.219 25.102
599 3 63 -0.344871 32.562 31.644 24.996
600 3 5 -0.052278 31.360 32.071 24.330
601 3 5 0.040495 30.148 31.795 25.206
602 3 63 -0.386643 30.386 32.005 26.680
603 3 5 0.067818 30.512 33.426 27.093
604 3 5 0.040988 29.052 33.996 27.332
605 3 63 -0.342146 28.488 34.641 26.118
606 3 5 -0.061806 29.129 35.862 25.784
607 3 5 -0.025605 28.269 36.572 24.768
608 3 63 -0.300453 28.769 36.100 23.520
609 3 20 0.073511 32.116 29.432 23.124
610 3 20 0.073511 33.374 28.489 23.957
611 3 20 0.086569 31.915 29.782 25.551
612 3 20 0.086569 33.628 29.928 25.715
613 3 20 0.099542 31.376 33.073 23.972
614 3 20 0.099542 31.271 31.445 23.436
615 3 20 0.080529 29.324 32.371 24.817
616 3 20 0.080529 29.851 30.732 25.071
617 3 20 0.068977 31.076 33.524 28.056
618 3 20 0.068977 31.112 34.039 26.401
619 3 20 0.063577 28.362 33.289 27.730
620 3 20 0.063577 29.146 34.778 28.123
621 3 20 0.10265 29.126 36.470 26.673
622 3 20 0.10265 30.130 35.836 25.527
623 3 20 0.108525 28.406 37.650 24.769
624 3 20 0.108525 27.159 36.373 24.951
625 3 1 0.758167 29.850 36.584 22.846
626 3 61 -0.584437 30.492 37.508 23.308
627 3 5 -0.006456 30.335 35.578 21.779
628 3 26 -0.085676 35.579 31.418 21.572
629 3 26 0.002565 31.416 35.694 21.678
630 3 26 0.110917 36.118 34.204 16.275
631 3 26 -0.085676 34.165 31.480 20.647
632 3 26 -0.02174 30.753 33.730 16.488
633 3 26 0.002565 30.186 34.583 22.113
634 4 5 -0.064834 30.013 5.234 8.263
635 4 1 0.222095 30.025 3.775 8.653
636 4 61 -0.421224 29.489 2.954 7.970
637 4 50 -0.199073 30.599 3.387 9.890
638 4 27 0.175403 30.970 4.171 10.449
639 4 5 0.184261 31.225 2.092 10.339
640 4 5 -0.100266 30.115 1.390 11.194
641 4 5 -0.100266 32.488 2.463 11.153
642 4 5 0.048604 31.685 1.048 9.281
643 4 79 1.067957 32.958 1.477 8.129
644 4 61 -0.67072 32.886 0.291 7.271
645 4 61 -0.67072 34.146 1.620 8.906
646 4 61 -0.67072 32.475 2.724 7.583
647 4 26 0.016092 29.985 1.840 12.149
648 4 26 0.016092 30.484 0.419 11.418
649 4 26 0.016092 29.119 1.104 10.784
650 4 26 0.016092 33.197 3.037 10.567
651 4 26 0.016092 33.033 1.605 11.458
652 4 26 0.016092 32.281 3.024 12.093
653 4 20 0.009122 30.835 0.703 8.689
654 4 20 0.009122 31.985 0.063 9.728
655 4 26 0.110917 30.845 5.702 8.743
656 4 5 -0.011873 28.652 5.890 8.489
657 4 1 0.615339 27.561 5.269 7.572
658 4 61 -0.561397 26.508 4.786 8.019
659 4 63 -0.237444 27.789 5.549 6.284
660 4 5 -0.084855 26.956 5.055 5.269
661 4 5 0.13222 27.157 3.507 5.166
662 4 63 -0.455502 26.737 2.916 3.877
663 4 5 0.114684 27.580 3.036 2.679
664 4 5 0.021605 28.632 1.937 2.629
665 4 63 -0.293251 29.736 2.655 3.195
666 4 5 -0.032933 30.983 1.904 3.396
667 4 5 0.124764 31.851 2.825 4.267
668 4 63 -0.408629 32.372 4.095 3.631
669 4 5 0.12378 33.422 4.122 2.667
670 4 5 0.151903 34.749 3.933 3.343
671 4 63 -0.326818 34.907 4.793 4.507
672 4 20 0.114474 25.909 5.395 5.252
673 4 20 0.114474 27.271 5.517 4.302
674 4 20 0.076629 28.200 3.268 5.432
675 4 20 0.076629 26.524 3.028 5.969
676 4 20 0.048212 26.984 3.118 1.801
677 4 20 0.048212 28.076 4.032 2.666
678 4 20 0.054681 28.375 1.046 3.227
679 4 20 0.054681 28.873 1.586 1.604
680 4 20 0.058887 30.766 0.942 3.911
681 4 20 0.058887 31.519 1.723 2.456
682 4 20 0.087894 31.323 3.147 5.098
683 4 20 0.087894 32.741 2.164 4.552
684 4 20 0.02648 33.297 3.277 1.881
685 4 20 0.02648 33.404 5.064 2.085
686 4 20 0.036537 35.579 4.143 2.620
687 4 20 0.036537 34.807 2.879 3.748
688 4 1 0.727713 35.049 6.081 4.187
689 4 61 -0.576378 35.179 6.481 3.065
690 4 5 -0.020814 34.928 6.987 5.404
691 4 26 0.067554 28.397 5.460 9.455
692 4 26 -0.02174 34.175 6.466 6.050
693 4 5 -0.024924 28.710 7.485 8.620
694 4 1 0.470545 28.691 8.148 7.197
695 4 61 -0.510544 27.805 8.869 6.694
696 4 63 -0.240725 29.907 7.935 6.603
697 4 5 -0.013005 30.068 8.239 5.211
698 4 5 0.119773 31.473 7.928 4.636
699 4 63 -0.420621 31.542 8.410 3.226
700 4 5 0.099176 31.658 9.811 2.974
701 4 5 0.161534 33.189 10.125 3.096
702 4 63 -0.458288 33.314 11.526 2.894
703 4 5 0.05472 34.573 12.029 3.159
704 4 5 0.076753 35.607 11.655 2.031
705 4 63 -0.389014 36.361 10.493 2.382
706 4 5 0.064058 37.626 10.753 3.132
707 4 5 -0.090567 38.032 9.376 3.756
708 4 63 -0.173198 37.163 8.833 4.739
709 4 20 0.101034 29.278 7.655 4.632
710 4 20 0.101034 29.946 9.326 5.069
711 4 20 0.049284 32.154 8.557 5.208
712 4 20 0.049284 31.756 6.853 4.654
713 4 20 0.046057 31.212 10.068 1.983
714 4 20 0.046057 31.127 10.325 3.766
715 4 20 0.088904 33.604 9.793 4.043
716 4 20 0.088904 33.755 9.630 2.314
717 4 20 0.069914 34.451 13.089 3.256
718 4 20 0.069914 35.000 11.625 4.142
719 4 20 0.06545 35.078 11.499 1.029
720 4 20 0.06545 36.348 12.469 1.901
721 4 20 0.050458 38.367 11.154 2.472
722 4 20 0.050458 37.412 11.500 3.952
723 4 20 0.129934 39.055 9.440 4.078
724 4 20 0.129934 38.002 8.650 2.941
725 4 1 0.480209 37.421 7.647 5.286
726 4 61 -0.503245 38.347 6.990 4.918
727 4 5 0.005732 36.302 7.129 6.204
728 4 26 0.086901 27.727 7.788 8.940
729 4 26 0.055053 36.541 6.077 6.553
730 4 5 -0.061618 29.898 8.015 9.592
731 4 1 0.006984 29.924 7.231 10.904
732 4 61 -0.316241 30.942 6.677 11.300
733 4 63 -0.165503 28.735 7.339 11.528
734 4 5 0.105106 28.430 6.389 12.649
735 4 5 0.117578 28.981 6.924 14.014
736 4 63 -0.320653 30.389 6.563 14.254
737 4 5 0.063637 30.706 5.191 14.519
738 4 5 0.029282 32.157 4.833 14.678
739 4 63 -0.194674 32.918 5.586 13.694
740 4 5 -0.009242 34.305 5.382 13.743